
     Program BANDS v.6.4.1 starts on 31Dec2020 at 22:13:10 

     This program is part of the open-source Quantum ESPRESSO suite
     for quantum simulation of materials; please cite
         "P. Giannozzi et al., J. Phys.:Condens. Matter 21 395502 (2009);
         "P. Giannozzi et al., J. Phys.:Condens. Matter 29 465901 (2017);
          URL http://www.quantum-espresso.org", 
     in publications or presentations arising from this work. More details at
     http://www.quantum-espresso.org/quote

     Parallel version (MPI), running on     4 processors

     MPI processes distributed on     1 nodes
     R & G space division:  proc/nbgrp/npool/nimage =       4

     Reading data from directory:
     ./Mn2CoGa.save/

     IMPORTANT: XC functional enforced from input :
     Exchange-correlation      = PBE ( 1  4  3  4 0 0)
     Any further DFT definition will be discarded
     Please, verify this is what you really want

               file Ga.pbe-dn-kjpaw_psl.1.0.0.UPF: wavefunction(s)  4S renormalized

     Parallelization info
     --------------------
     sticks:   dense  smooth     PW     G-vecs:    dense   smooth      PW
     Min        2067     826    228               124085    31361    4512
     Max        2068     828    229               124089    31362    4515
     Sum        8269    3307    913               496345   125445   18053

     Generating pointlists ...
     new r_m :   0.1786 (alat units)  1.9571 (a.u.) for type    1
     new r_m :   0.1786 (alat units)  1.9571 (a.u.) for type    2
     new r_m :   0.1786 (alat units)  1.9571 (a.u.) for type    3

     Check: negative core charge=   -0.000003
     high-symmetry point:  0.0000 0.5000 1.0000   x coordinate   0.0000
     high-symmetry point:  0.5000 0.5000 0.5000   x coordinate   0.7071
     high-symmetry point:  0.0000 0.0000 0.0000   x coordinate   1.5731
     high-symmetry point:  1.0000 0.0000 0.0000   x coordinate   2.5731
     high-symmetry point:  1.0000 0.5000 0.0000   x coordinate   3.0731
     high-symmetry point:  0.7500 0.7500 0.0000   x coordinate   3.4267

     Plottable bands (eV) written to file Mn2CoGa_up_bands.dat.gnu
     Bands written to file Mn2CoGa_up_bands.dat

 **************************************************************************

                    xk=(   0.00000,   0.50000,   1.00000  )

     point group S_4 (-4)   
     there are  4 classes
     the character table:

       E     S4^3  C2    S4   
A      1.00  1.00  1.00  1.00
B      1.00 -1.00  1.00 -1.00
E      1.00  0.00 -1.00  0.00
E*     1.00  0.00 -1.00  0.00
     imaginary part
A      0.00  0.00  0.00  0.00
B      0.00  0.00  0.00  0.00
E      0.00  1.00  0.00 -1.00
E*     0.00 -1.00  0.00  1.00

     the symmetry operations in each class and the name of the first element:

     E        1
                                                                 
     S4^3     3
                                                                 
     C2       2
                                                                 
     S4       4
                                                                 

     Band symmetry, S_4 (-4)    point group:

     e(  1 -  1) =    -77.09118  eV     1   --> B    W_3       
     e(  2 -  2) =    -63.21964  eV     1   --> A    W_1       
     e(  3 -  3) =    -60.50785  eV     1   --> E    W_4       
     e(  4 -  4) =    -40.42601  eV     1   --> E*   W_2       
     e(  5 -  5) =    -40.42572  eV     1   --> A    W_1       
     e(  6 -  6) =    -40.42521  eV     1   --> E    W_4       
     e(  7 -  7) =    -31.98521  eV     1   --> E*   W_2       
     e(  8 -  8) =    -31.98465  eV     1   --> B    W_3       
     e(  9 -  9) =    -31.97861  eV     1   --> E    W_4       
     e( 10 - 10) =    -29.32493  eV     1   --> A    W_1       
     e( 11 - 11) =    -29.31909  eV     1   --> B    W_3       
     e( 12 - 12) =    -29.31745  eV     1   --> E*   W_2       
     e( 13 - 13) =      2.50137  eV     1   --> B    W_3       
     e( 14 - 14) =      2.50484  eV     1   --> A    W_1       
     e( 15 - 15) =      2.52870  eV     1   --> E    W_4       
     e( 16 - 16) =      2.54518  eV     1   --> E    W_4       
     e( 17 - 17) =      2.57032  eV     1   --> E*   W_2       
     e( 18 - 18) =      9.85002  eV     1   --> E*   W_2       
     e( 19 - 19) =     12.18097  eV     1   --> B    W_3       
     e( 20 - 20) =     12.55226  eV     1   --> A    W_1       
     e( 21 - 21) =     13.51602  eV     1   --> E    W_4       
     e( 22 - 22) =     14.53744  eV     1   --> E    W_4       
     e( 23 - 23) =     14.70935  eV     1   --> A    W_1       
     e( 24 - 24) =     15.08610  eV     1   --> B    W_3       
     e( 25 - 25) =     15.22737  eV     1   --> E*   W_2       
     e( 26 - 26) =     15.29490  eV     1   --> B    W_3       
     e( 27 - 27) =     15.83204  eV     1   --> A    W_1       
     e( 28 - 28) =     16.02913  eV     1   --> E*   W_2       
     e( 29 - 29) =     16.21874  eV     1   --> E    W_4       
     e( 30 - 30) =     17.46068  eV     1   --> B    W_3       
     e( 31 - 31) =     17.77051  eV     1   --> A    W_1       
     e( 32 - 32) =     18.08099  eV     1   --> A    W_1       
     e( 33 - 33) =     18.15638  eV     1   --> B    W_3       
     e( 34 - 34) =     18.50276  eV     1   --> E    W_4       
     e( 35 - 35) =     18.58373  eV     1   --> E*   W_2       
     e( 36 - 36) =     18.67973  eV     1   --> E*   W_2       

 **************************************************************************

 **************************************************************************

                    xk=(   0.01667,   0.50000,   0.98333  )

     point group C_1 (1)    
     there are  1 classes
     the character table:

       E    
A      1.00

     the symmetry operations in each class and the name of the first element:

     E        1
                                                                 

     Band symmetry, C_1 (1)     point group:

     e(  1 -  1) =    -77.09118  eV     1   --> A              
     e(  2 -  2) =    -63.21964  eV     1   --> A              
     e(  3 -  3) =    -60.50785  eV     1   --> A              
     e(  4 -  4) =    -40.42601  eV     1   --> A              
     e(  5 -  5) =    -40.42572  eV     1   --> A              
     e(  6 -  6) =    -40.42521  eV     1   --> A              
     e(  7 -  7) =    -31.98522  eV     1   --> A              
     e(  8 -  8) =    -31.98464  eV     1   --> A              
     e(  9 -  9) =    -31.97862  eV     1   --> A              
     e( 10 - 10) =    -29.32493  eV     1   --> A              
     e( 11 - 11) =    -29.31909  eV     1   --> A              
     e( 12 - 12) =    -29.31745  eV     1   --> A              
     e( 13 - 13) =      2.50138  eV     1   --> A              
     e( 14 - 14) =      2.50485  eV     1   --> A              
     e( 15 - 15) =      2.52866  eV     1   --> A              
     e( 16 - 16) =      2.54523  eV     1   --> A              
     e( 17 - 17) =      2.57029  eV     1   --> A              
     e( 18 - 18) =      9.84728  eV     1   --> A              
     e( 19 - 19) =     12.18047  eV     1   --> A              
     e( 20 - 20) =     12.54912  eV     1   --> A              
     e( 21 - 21) =     13.52263  eV     1   --> A              
     e( 22 - 22) =     14.52895  eV     1   --> A              
     e( 23 - 23) =     14.71502  eV     1   --> A              
     e( 24 - 24) =     15.08762  eV     1   --> A              
     e( 25 - 25) =     15.22720  eV     1   --> A              
     e( 26 - 26) =     15.29513  eV     1   --> A              
     e( 27 - 27) =     15.83298  eV     1   --> A              
     e( 28 - 28) =     16.02781  eV     1   --> A              
     e( 29 - 29) =     16.21784  eV     1   --> A              
     e( 30 - 30) =     17.46210  eV     1   --> A              
     e( 31 - 31) =     17.77088  eV     1   --> A              
     e( 32 - 32) =     18.08222  eV     1   --> A              
     e( 33 - 33) =     18.15760  eV     1   --> A              
     e( 34 - 34) =     18.50648  eV     1   --> A              
     e( 35 - 35) =     18.58520  eV     1   --> A              
     e( 36 - 36) =     18.68283  eV     1   --> A              

 **************************************************************************

 **************************************************************************

                    xk=(   0.03333,   0.50000,   0.96667  )

     Band symmetry, C_1 (1)     point group:

     e(  1 -  1) =    -77.09118  eV     1   --> A              
     e(  2 -  2) =    -63.21964  eV     1   --> A              
     e(  3 -  3) =    -60.50784  eV     1   --> A              
     e(  4 -  4) =    -40.42600  eV     1   --> A              
     e(  5 -  5) =    -40.42572  eV     1   --> A              
     e(  6 -  6) =    -40.42521  eV     1   --> A              
     e(  7 -  7) =    -31.98524  eV     1   --> A              
     e(  8 -  8) =    -31.98459  eV     1   --> A              
     e(  9 -  9) =    -31.97863  eV     1   --> A              
     e( 10 - 10) =    -29.32491  eV     1   --> A              
     e( 11 - 11) =    -29.31909  eV     1   --> A              
     e( 12 - 12) =    -29.31747  eV     1   --> A              
     e( 13 - 13) =      2.50143  eV     1   --> A              
     e( 14 - 14) =      2.50489  eV     1   --> A              
     e( 15 - 15) =      2.52855  eV     1   --> A              
     e( 16 - 16) =      2.54536  eV     1   --> A              
     e( 17 - 17) =      2.57022  eV     1   --> A              
     e( 18 - 18) =      9.83915  eV     1   --> A              
     e( 19 - 19) =     12.17800  eV     1   --> A              
     e( 20 - 20) =     12.54128  eV     1   --> A              
     e( 21 - 21) =     13.54179  eV     1   --> A              
     e( 22 - 22) =     14.50655  eV     1   --> A              
     e( 23 - 23) =     14.72909  eV     1   --> A              
     e( 24 - 24) =     15.09198  eV     1   --> A              
     e( 25 - 25) =     15.22664  eV     1   --> A              
     e( 26 - 26) =     15.29592  eV     1   --> A              
     e( 27 - 27) =     15.83579  eV     1   --> A              
     e( 28 - 28) =     16.02385  eV     1   --> A              
     e( 29 - 29) =     16.21526  eV     1   --> A              
     e( 30 - 30) =     17.46631  eV     1   --> A              
     e( 31 - 31) =     17.77187  eV     1   --> A              
     e( 32 - 32) =     18.08562  eV     1   --> A              
     e( 33 - 33) =     18.16159  eV     1   --> A              
     e( 34 - 34) =     18.51657  eV     1   --> A              
     e( 35 - 35) =     18.59054  eV     1   --> A              
     e( 36 - 36) =     18.69226  eV     1   --> A              

 **************************************************************************

 **************************************************************************

                    xk=(   0.05000,   0.50000,   0.95000  )

     Band symmetry, C_1 (1)     point group:

     e(  1 -  1) =    -77.09118  eV     1   --> A              
     e(  2 -  2) =    -63.21965  eV     1   --> A              
     e(  3 -  3) =    -60.50784  eV     1   --> A              
     e(  4 -  4) =    -40.42600  eV     1   --> A              
     e(  5 -  5) =    -40.42571  eV     1   --> A              
     e(  6 -  6) =    -40.42521  eV     1   --> A              
     e(  7 -  7) =    -31.98527  eV     1   --> A              
     e(  8 -  8) =    -31.98453  eV     1   --> A              
     e(  9 -  9) =    -31.97865  eV     1   --> A              
     e( 10 - 10) =    -29.32489  eV     1   --> A              
     e( 11 - 11) =    -29.31909  eV     1   --> A              
     e( 12 - 12) =    -29.31749  eV     1   --> A              
     e( 13 - 13) =      2.50150  eV     1   --> A              
     e( 14 - 14) =      2.50495  eV     1   --> A              
     e( 15 - 15) =      2.52835  eV     1   --> A              
     e( 16 - 16) =      2.54559  eV     1   --> A              
     e( 17 - 17) =      2.57011  eV     1   --> A              
     e( 18 - 18) =      9.82586  eV     1   --> A              
     e( 19 - 19) =     12.17071  eV     1   --> A              
     e( 20 - 20) =     12.53311  eV     1   --> A              
     e( 21 - 21) =     13.57173  eV     1   --> A              
     e( 22 - 22) =     14.47566  eV     1   --> A              
     e( 23 - 23) =     14.74648  eV     1   --> A              
     e( 24 - 24) =     15.09859  eV     1   --> A              
     e( 25 - 25) =     15.22549  eV     1   --> A              
     e( 26 - 26) =     15.29760  eV     1   --> A              
     e( 27 - 27) =     15.84034  eV     1   --> A              
     e( 28 - 28) =     16.01727  eV     1   --> A              
     e( 29 - 29) =     16.21131  eV     1   --> A              
     e( 30 - 30) =     17.47323  eV     1   --> A              
     e( 31 - 31) =     17.77325  eV     1   --> A              
     e( 32 - 32) =     18.09044  eV     1   --> A              
     e( 33 - 33) =     18.16919  eV     1   --> A              
     e( 34 - 34) =     18.52951  eV     1   --> A              
     e( 35 - 35) =     18.60295  eV     1   --> A              
     e( 36 - 36) =     18.70840  eV     1   --> A              

 **************************************************************************

 **************************************************************************

                    xk=(   0.06667,   0.50000,   0.93333  )

     Band symmetry, C_1 (1)     point group:

     e(  1 -  1) =    -77.09118  eV     1   --> A              
     e(  2 -  2) =    -63.21965  eV     1   --> A              
     e(  3 -  3) =    -60.50784  eV     1   --> A              
     e(  4 -  4) =    -40.42600  eV     1   --> A              
     e(  5 -  5) =    -40.42571  eV     1   --> A              
     e(  6 -  6) =    -40.42521  eV     1   --> A              
     e(  7 -  7) =    -31.98530  eV     1   --> A              
     e(  8 -  8) =    -31.98445  eV     1   --> A              
     e(  9 -  9) =    -31.97868  eV     1   --> A              
     e( 10 - 10) =    -29.32485  eV     1   --> A              
     e( 11 - 11) =    -29.31909  eV     1   --> A              
     e( 12 - 12) =    -29.31753  eV     1   --> A              
     e( 13 - 13) =      2.50159  eV     1   --> A              
     e( 14 - 14) =      2.50504  eV     1   --> A              
     e( 15 - 15) =      2.52809  eV     1   --> A              
     e( 16 - 16) =      2.54591  eV     1   --> A              
     e( 17 - 17) =      2.56995  eV     1   --> A              
     e( 18 - 18) =      9.80780  eV     1   --> A              
     e( 19 - 19) =     12.15471  eV     1   --> A              
     e( 20 - 20) =     12.53045  eV     1   --> A              
     e( 21 - 21) =     13.61010  eV     1   --> A              
     e( 22 - 22) =     14.44020  eV     1   --> A              
     e( 23 - 23) =     14.76390  eV     1   --> A              
     e( 24 - 24) =     15.10647  eV     1   --> A              
     e( 25 - 25) =     15.22360  eV     1   --> A              
     e( 26 - 26) =     15.30058  eV     1   --> A              
     e( 27 - 27) =     15.84648  eV     1   --> A              
     e( 28 - 28) =     16.00821  eV     1   --> A              
     e( 29 - 29) =     16.20643  eV     1   --> A              
     e( 30 - 30) =     17.48272  eV     1   --> A              
     e( 31 - 31) =     17.77474  eV     1   --> A              
     e( 32 - 32) =     18.09583  eV     1   --> A              
     e( 33 - 33) =     18.18114  eV     1   --> A              
     e( 34 - 34) =     18.54021  eV     1   --> A              
     e( 35 - 35) =     18.62710  eV     1   --> A              
     e( 36 - 36) =     18.73184  eV     1   --> A              

 **************************************************************************

 **************************************************************************

                    xk=(   0.08333,   0.50000,   0.91667  )

     Band symmetry, C_1 (1)     point group:

     e(  1 -  1) =    -77.09118  eV     1   --> A              
     e(  2 -  2) =    -63.21965  eV     1   --> A              
     e(  3 -  3) =    -60.50783  eV     1   --> A              
     e(  4 -  4) =    -40.42600  eV     1   --> A              
     e(  5 -  5) =    -40.42570  eV     1   --> A              
     e(  6 -  6) =    -40.42521  eV     1   --> A              
     e(  7 -  7) =    -31.98532  eV     1   --> A              
     e(  8 -  8) =    -31.98436  eV     1   --> A              
     e(  9 -  9) =    -31.97872  eV     1   --> A              
     e( 10 - 10) =    -29.32481  eV     1   --> A              
     e( 11 - 11) =    -29.31909  eV     1   --> A              
     e( 12 - 12) =    -29.31758  eV     1   --> A              
     e( 13 - 13) =      2.50169  eV     1   --> A              
     e( 14 - 14) =      2.50517  eV     1   --> A              
     e( 15 - 15) =      2.52775  eV     1   --> A              
     e( 16 - 16) =      2.54632  eV     1   --> A              
     e( 17 - 17) =      2.56975  eV     1   --> A              
     e( 18 - 18) =      9.78545  eV     1   --> A              
     e( 19 - 19) =     12.12689  eV     1   --> A              
     e( 20 - 20) =     12.53831  eV     1   --> A              
     e( 21 - 21) =     13.65448  eV     1   --> A              
     e( 22 - 22) =     14.40253  eV     1   --> A              
     e( 23 - 23) =     14.77981  eV     1   --> A              
     e( 24 - 24) =     15.11436  eV     1   --> A              
     e( 25 - 25) =     15.22094  eV     1   --> A              
     e( 26 - 26) =     15.30519  eV     1   --> A              
     e( 27 - 27) =     15.85393  eV     1   --> A              
     e( 28 - 28) =     15.99691  eV     1   --> A              
     e( 29 - 29) =     16.20101  eV     1   --> A              
     e( 30 - 30) =     17.49461  eV     1   --> A              
     e( 31 - 31) =     17.77611  eV     1   --> A              
     e( 32 - 32) =     18.10141  eV     1   --> A              
     e( 33 - 33) =     18.19745  eV     1   --> A              
     e( 34 - 34) =     18.54646  eV     1   --> A              
     e( 35 - 35) =     18.66486  eV     1   --> A              
     e( 36 - 36) =     18.76336  eV     1   --> A              

 **************************************************************************

 **************************************************************************

                    xk=(   0.10000,   0.50000,   0.90000  )

     Band symmetry, C_1 (1)     point group:

     e(  1 -  1) =    -77.09118  eV     1   --> A              
     e(  2 -  2) =    -63.21966  eV     1   --> A              
     e(  3 -  3) =    -60.50782  eV     1   --> A              
     e(  4 -  4) =    -40.42599  eV     1   --> A              
     e(  5 -  5) =    -40.42569  eV     1   --> A              
     e(  6 -  6) =    -40.42522  eV     1   --> A              
     e(  7 -  7) =    -31.98534  eV     1   --> A              
     e(  8 -  8) =    -31.98426  eV     1   --> A              
     e(  9 -  9) =    -31.97877  eV     1   --> A              
     e( 10 - 10) =    -29.32476  eV     1   --> A              
     e( 11 - 11) =    -29.31909  eV     1   --> A              
     e( 12 - 12) =    -29.31764  eV     1   --> A              
     e( 13 - 13) =      2.50178  eV     1   --> A              
     e( 14 - 14) =      2.50534  eV     1   --> A              
     e( 15 - 15) =      2.52734  eV     1   --> A              
     e( 16 - 16) =      2.54680  eV     1   --> A              
     e( 17 - 17) =      2.56951  eV     1   --> A              
     e( 18 - 18) =      9.75937  eV     1   --> A              
     e( 19 - 19) =     12.08676  eV     1   --> A              
     e( 20 - 20) =     12.55877  eV     1   --> A              
     e( 21 - 21) =     13.70262  eV     1   --> A              
     e( 22 - 22) =     14.36423  eV     1   --> A              
     e( 23 - 23) =     14.79365  eV     1   --> A              
     e( 24 - 24) =     15.12078  eV     1   --> A              
     e( 25 - 25) =     15.21791  eV     1   --> A              
     e( 26 - 26) =     15.31150  eV     1   --> A              
     e( 27 - 27) =     15.86238  eV     1   --> A              
     e( 28 - 28) =     15.98384  eV     1   --> A              
     e( 29 - 29) =     16.19529  eV     1   --> A              
     e( 30 - 30) =     17.50866  eV     1   --> A              
     e( 31 - 31) =     17.77728  eV     1   --> A              
     e( 32 - 32) =     18.10740  eV     1   --> A              
     e( 33 - 33) =     18.21725  eV     1   --> A              
     e( 34 - 34) =     18.54945  eV     1   --> A              
     e( 35 - 35) =     18.71477  eV     1   --> A              
     e( 36 - 36) =     18.80376  eV     1   --> A              

 **************************************************************************

 **************************************************************************

                    xk=(   0.11667,   0.50000,   0.88333  )

     Band symmetry, C_1 (1)     point group:

     e(  1 -  1) =    -77.09118  eV     1   --> A              
     e(  2 -  2) =    -63.21967  eV     1   --> A              
     e(  3 -  3) =    -60.50782  eV     1   --> A              
     e(  4 -  4) =    -40.42599  eV     1   --> A              
     e(  5 -  5) =    -40.42568  eV     1   --> A              
     e(  6 -  6) =    -40.42522  eV     1   --> A              
     e(  7 -  7) =    -31.98534  eV     1   --> A              
     e(  8 -  8) =    -31.98416  eV     1   --> A              
     e(  9 -  9) =    -31.97883  eV     1   --> A              
     e( 10 - 10) =    -29.32470  eV     1   --> A              
     e( 11 - 11) =    -29.31909  eV     1   --> A              
     e( 12 - 12) =    -29.31771  eV     1   --> A              
     e( 13 - 13) =      2.50187  eV     1   --> A              
     e( 14 - 14) =      2.50556  eV     1   --> A              
     e( 15 - 15) =      2.52686  eV     1   --> A              
     e( 16 - 16) =      2.54737  eV     1   --> A              
     e( 17 - 17) =      2.56924  eV     1   --> A              
     e( 18 - 18) =      9.73015  eV     1   --> A              
     e( 19 - 19) =     12.03621  eV     1   --> A              
     e( 20 - 20) =     12.59108  eV     1   --> A              
     e( 21 - 21) =     13.75251  eV     1   --> A              
     e( 22 - 22) =     14.32657  eV     1   --> A              
     e( 23 - 23) =     14.80536  eV     1   --> A              
     e( 24 - 24) =     15.12421  eV     1   --> A              
     e( 25 - 25) =     15.21528  eV     1   --> A              
     e( 26 - 26) =     15.31926  eV     1   --> A              
     e( 27 - 27) =     15.87143  eV     1   --> A              
     e( 28 - 28) =     15.96961  eV     1   --> A              
     e( 29 - 29) =     16.18937  eV     1   --> A              
     e( 30 - 30) =     17.52455  eV     1   --> A              
     e( 31 - 31) =     17.77827  eV     1   --> A              
     e( 32 - 32) =     18.11433  eV     1   --> A              
     e( 33 - 33) =     18.23918  eV     1   --> A              
     e( 34 - 34) =     18.55063  eV     1   --> A              
     e( 35 - 35) =     18.77531  eV     1   --> A              
     e( 36 - 36) =     18.85381  eV     1   --> A              

 **************************************************************************

 **************************************************************************

                    xk=(   0.13333,   0.50000,   0.86667  )

     Band symmetry, C_1 (1)     point group:

     e(  1 -  1) =    -77.09118  eV     1   --> A              
     e(  2 -  2) =    -63.21967  eV     1   --> A              
     e(  3 -  3) =    -60.50781  eV     1   --> A              
     e(  4 -  4) =    -40.42598  eV     1   --> A              
     e(  5 -  5) =    -40.42567  eV     1   --> A              
     e(  6 -  6) =    -40.42522  eV     1   --> A              
     e(  7 -  7) =    -31.98534  eV     1   --> A              
     e(  8 -  8) =    -31.98405  eV     1   --> A              
     e(  9 -  9) =    -31.97890  eV     1   --> A              
     e( 10 - 10) =    -29.32463  eV     1   --> A              
     e( 11 - 11) =    -29.31909  eV     1   --> A              
     e( 12 - 12) =    -29.31778  eV     1   --> A              
     e( 13 - 13) =      2.50193  eV     1   --> A              
     e( 14 - 14) =      2.50585  eV     1   --> A              
     e( 15 - 15) =      2.52632  eV     1   --> A              
     e( 16 - 16) =      2.54802  eV     1   --> A              
     e( 17 - 17) =      2.56895  eV     1   --> A              
     e( 18 - 18) =      9.69841  eV     1   --> A              
     e( 19 - 19) =     11.97806  eV     1   --> A              
     e( 20 - 20) =     12.63320  eV     1   --> A              
     e( 21 - 21) =     13.80221  eV     1   --> A              
     e( 22 - 22) =     14.29085  eV     1   --> A              
     e( 23 - 23) =     14.81509  eV     1   --> A              
     e( 24 - 24) =     15.12334  eV     1   --> A              
     e( 25 - 25) =     15.21403  eV     1   --> A              
     e( 26 - 26) =     15.32794  eV     1   --> A              
     e( 27 - 27) =     15.88061  eV     1   --> A              
     e( 28 - 28) =     15.95497  eV     1   --> A              
     e( 29 - 29) =     16.18317  eV     1   --> A              
     e( 30 - 30) =     17.54190  eV     1   --> A              
     e( 31 - 31) =     17.77924  eV     1   --> A              
     e( 32 - 32) =     18.12279  eV     1   --> A              
     e( 33 - 33) =     18.26187  eV     1   --> A              
     e( 34 - 34) =     18.55079  eV     1   --> A              
     e( 35 - 35) =     18.84568  eV     1   --> A              
     e( 36 - 36) =     18.91401  eV     1   --> A              

 **************************************************************************

 **************************************************************************

                    xk=(   0.15000,   0.50000,   0.85000  )

     Band symmetry, C_1 (1)     point group:

     e(  1 -  1) =    -77.09118  eV     1   --> A              
     e(  2 -  2) =    -63.21968  eV     1   --> A              
     e(  3 -  3) =    -60.50780  eV     1   --> A              
     e(  4 -  4) =    -40.42597  eV     1   --> A              
     e(  5 -  5) =    -40.42566  eV     1   --> A              
     e(  6 -  6) =    -40.42523  eV     1   --> A              
     e(  7 -  7) =    -31.98533  eV     1   --> A              
     e(  8 -  8) =    -31.98394  eV     1   --> A              
     e(  9 -  9) =    -31.97897  eV     1   --> A              
     e( 10 - 10) =    -29.32456  eV     1   --> A              
     e( 11 - 11) =    -29.31910  eV     1   --> A              
     e( 12 - 12) =    -29.31786  eV     1   --> A              
     e( 13 - 13) =      2.50196  eV     1   --> A              
     e( 14 - 14) =      2.50619  eV     1   --> A              
     e( 15 - 15) =      2.52572  eV     1   --> A              
     e( 16 - 16) =      2.54873  eV     1   --> A              
     e( 17 - 17) =      2.56863  eV     1   --> A              
     e( 18 - 18) =      9.66474  eV     1   --> A              
     e( 19 - 19) =     11.91491  eV     1   --> A              
     e( 20 - 20) =     12.68300  eV     1   --> A              
     e( 21 - 21) =     13.84958  eV     1   --> A              
     e( 22 - 22) =     14.25873  eV     1   --> A              
     e( 23 - 23) =     14.82307  eV     1   --> A              
     e( 24 - 24) =     15.11758  eV     1   --> A              
     e( 25 - 25) =     15.21473  eV     1   --> A              
     e( 26 - 26) =     15.33688  eV     1   --> A              
     e( 27 - 27) =     15.88945  eV     1   --> A              
     e( 28 - 28) =     15.94071  eV     1   --> A              
     e( 29 - 29) =     16.17651  eV     1   --> A              
     e( 30 - 30) =     17.56023  eV     1   --> A              
     e( 31 - 31) =     17.78037  eV     1   --> A              
     e( 32 - 32) =     18.13327  eV     1   --> A              
     e( 33 - 33) =     18.28428  eV     1   --> A              
     e( 34 - 34) =     18.55035  eV     1   --> A              
     e( 35 - 35) =     18.92561  eV     1   --> A              
     e( 36 - 36) =     18.98460  eV     1   --> A              

 **************************************************************************

 **************************************************************************

                    xk=(   0.16667,   0.50000,   0.83333  )

     Band symmetry, C_1 (1)     point group:

     e(  1 -  1) =    -77.09118  eV     1   --> A              
     e(  2 -  2) =    -63.21969  eV     1   --> A              
     e(  3 -  3) =    -60.50779  eV     1   --> A              
     e(  4 -  4) =    -40.42596  eV     1   --> A              
     e(  5 -  5) =    -40.42564  eV     1   --> A              
     e(  6 -  6) =    -40.42523  eV     1   --> A              
     e(  7 -  7) =    -31.98530  eV     1   --> A              
     e(  8 -  8) =    -31.98384  eV     1   --> A              
     e(  9 -  9) =    -31.97906  eV     1   --> A              
     e( 10 - 10) =    -29.32448  eV     1   --> A              
     e( 11 - 11) =    -29.31910  eV     1   --> A              
     e( 12 - 12) =    -29.31795  eV     1   --> A              
     e( 13 - 13) =      2.50195  eV     1   --> A              
     e( 14 - 14) =      2.50658  eV     1   --> A              
     e( 15 - 15) =      2.52507  eV     1   --> A              
     e( 16 - 16) =      2.54951  eV     1   --> A              
     e( 17 - 17) =      2.56829  eV     1   --> A              
     e( 18 - 18) =      9.62971  eV     1   --> A              
     e( 19 - 19) =     11.84882  eV     1   --> A              
     e( 20 - 20) =     12.73865  eV     1   --> A              
     e( 21 - 21) =     13.89178  eV     1   --> A              
     e( 22 - 22) =     14.23276  eV     1   --> A              
     e( 23 - 23) =     14.82949  eV     1   --> A              
     e( 24 - 24) =     15.10730  eV     1   --> A              
     e( 25 - 25) =     15.21722  eV     1   --> A              
     e( 26 - 26) =     15.34539  eV     1   --> A              
     e( 27 - 27) =     15.89733  eV     1   --> A              
     e( 28 - 28) =     15.92771  eV     1   --> A              
     e( 29 - 29) =     16.16916  eV     1   --> A              
     e( 30 - 30) =     17.57899  eV     1   --> A              
     e( 31 - 31) =     17.78185  eV     1   --> A              
     e( 32 - 32) =     18.14614  eV     1   --> A              
     e( 33 - 33) =     18.30573  eV     1   --> A              
     e( 34 - 34) =     18.54952  eV     1   --> A              
     e( 35 - 35) =     19.01505  eV     1   --> A              
     e( 36 - 36) =     19.06545  eV     1   --> A              

 **************************************************************************

 **************************************************************************

                    xk=(   0.18333,   0.50000,   0.81667  )

     Band symmetry, C_1 (1)     point group:

     e(  1 -  1) =    -77.09118  eV     1   --> A              
     e(  2 -  2) =    -63.21970  eV     1   --> A              
     e(  3 -  3) =    -60.50778  eV     1   --> A              
     e(  4 -  4) =    -40.42595  eV     1   --> A              
     e(  5 -  5) =    -40.42563  eV     1   --> A              
     e(  6 -  6) =    -40.42523  eV     1   --> A              
     e(  7 -  7) =    -31.98526  eV     1   --> A              
     e(  8 -  8) =    -31.98373  eV     1   --> A              
     e(  9 -  9) =    -31.97915  eV     1   --> A              
     e( 10 - 10) =    -29.32440  eV     1   --> A              
     e( 11 - 11) =    -29.31910  eV     1   --> A              
     e( 12 - 12) =    -29.31804  eV     1   --> A              
     e( 13 - 13) =      2.50191  eV     1   --> A              
     e( 14 - 14) =      2.50703  eV     1   --> A              
     e( 15 - 15) =      2.52438  eV     1   --> A              
     e( 16 - 16) =      2.55034  eV     1   --> A              
     e( 17 - 17) =      2.56794  eV     1   --> A              
     e( 18 - 18) =      9.59385  eV     1   --> A              
     e( 19 - 19) =     11.78136  eV     1   --> A              
     e( 20 - 20) =     12.79868  eV     1   --> A              
     e( 21 - 21) =     13.92473  eV     1   --> A              
     e( 22 - 22) =     14.21678  eV     1   --> A              
     e( 23 - 23) =     14.83458  eV     1   --> A              
     e( 24 - 24) =     15.09340  eV     1   --> A              
     e( 25 - 25) =     15.22091  eV     1   --> A              
     e( 26 - 26) =     15.35292  eV     1   --> A              
     e( 27 - 27) =     15.90282  eV     1   --> A              
     e( 28 - 28) =     15.91761  eV     1   --> A              
     e( 29 - 29) =     16.16091  eV     1   --> A              
     e( 30 - 30) =     17.59764  eV     1   --> A              
     e( 31 - 31) =     17.78378  eV     1   --> A              
     e( 32 - 32) =     18.16166  eV     1   --> A              
     e( 33 - 33) =     18.32592  eV     1   --> A              
     e( 34 - 34) =     18.54844  eV     1   --> A              
     e( 35 - 35) =     19.11405  eV     1   --> A              
     e( 36 - 36) =     19.15617  eV     1   --> A              

 **************************************************************************

 **************************************************************************

                    xk=(   0.20000,   0.50000,   0.80000  )

     Band symmetry, C_1 (1)     point group:

     e(  1 -  1) =    -77.09118  eV     1   --> A              
     e(  2 -  2) =    -63.21971  eV     1   --> A              
     e(  3 -  3) =    -60.50777  eV     1   --> A              
     e(  4 -  4) =    -40.42594  eV     1   --> A              
     e(  5 -  5) =    -40.42562  eV     1   --> A              
     e(  6 -  6) =    -40.42524  eV     1   --> A              
     e(  7 -  7) =    -31.98521  eV     1   --> A              
     e(  8 -  8) =    -31.98363  eV     1   --> A              
     e(  9 -  9) =    -31.97925  eV     1   --> A              
     e( 10 - 10) =    -29.32432  eV     1   --> A              
     e( 11 - 11) =    -29.31911  eV     1   --> A              
     e( 12 - 12) =    -29.31814  eV     1   --> A              
     e( 13 - 13) =      2.50184  eV     1   --> A              
     e( 14 - 14) =      2.50751  eV     1   --> A              
     e( 15 - 15) =      2.52366  eV     1   --> A              
     e( 16 - 16) =      2.55122  eV     1   --> A              
     e( 17 - 17) =      2.56758  eV     1   --> A              
     e( 18 - 18) =      9.55763  eV     1   --> A              
     e( 19 - 19) =     11.71370  eV     1   --> A              
     e( 20 - 20) =     12.86184  eV     1   --> A              
     e( 21 - 21) =     13.94368  eV     1   --> A              
     e( 22 - 22) =     14.21546  eV     1   --> A              
     e( 23 - 23) =     14.83849  eV     1   --> A              
     e( 24 - 24) =     15.07682  eV     1   --> A              
     e( 25 - 25) =     15.22519  eV     1   --> A              
     e( 26 - 26) =     15.35902  eV     1   --> A              
     e( 27 - 27) =     15.90098  eV     1   --> A              
     e( 28 - 28) =     15.91552  eV     1   --> A              
     e( 29 - 29) =     16.15157  eV     1   --> A              
     e( 30 - 30) =     17.61571  eV     1   --> A              
     e( 31 - 31) =     17.78616  eV     1   --> A              
     e( 32 - 32) =     18.17990  eV     1   --> A              
     e( 33 - 33) =     18.34480  eV     1   --> A              
     e( 34 - 34) =     18.54720  eV     1   --> A              
     e( 35 - 35) =     19.22267  eV     1   --> A              
     e( 36 - 36) =     19.25625  eV     1   --> A              

 **************************************************************************

 **************************************************************************

                    xk=(   0.21667,   0.50000,   0.78333  )

     Band symmetry, C_1 (1)     point group:

     e(  1 -  1) =    -77.09118  eV     1   --> A              
     e(  2 -  2) =    -63.21972  eV     1   --> A              
     e(  3 -  3) =    -60.50776  eV     1   --> A              
     e(  4 -  4) =    -40.42593  eV     1   --> A              
     e(  5 -  5) =    -40.42561  eV     1   --> A              
     e(  6 -  6) =    -40.42525  eV     1   --> A              
     e(  7 -  7) =    -31.98514  eV     1   --> A              
     e(  8 -  8) =    -31.98353  eV     1   --> A              
     e(  9 -  9) =    -31.97936  eV     1   --> A              
     e( 10 - 10) =    -29.32423  eV     1   --> A              
     e( 11 - 11) =    -29.31911  eV     1   --> A              
     e( 12 - 12) =    -29.31824  eV     1   --> A              
     e( 13 - 13) =      2.50173  eV     1   --> A              
     e( 14 - 14) =      2.50804  eV     1   --> A              
     e( 15 - 15) =      2.52291  eV     1   --> A              
     e( 16 - 16) =      2.55213  eV     1   --> A              
     e( 17 - 17) =      2.56721  eV     1   --> A              
     e( 18 - 18) =      9.52149  eV     1   --> A              
     e( 19 - 19) =     11.64675  eV     1   --> A              
     e( 20 - 20) =     12.92709  eV     1   --> A              
     e( 21 - 21) =     13.94642  eV     1   --> A              
     e( 22 - 22) =     14.23095  eV     1   --> A              
     e( 23 - 23) =     14.84138  eV     1   --> A              
     e( 24 - 24) =     15.05837  eV     1   --> A              
     e( 25 - 25) =     15.22957  eV     1   --> A              
     e( 26 - 26) =     15.36344  eV     1   --> A              
     e( 27 - 27) =     15.89468  eV     1   --> A              
     e( 28 - 28) =     15.91866  eV     1   --> A              
     e( 29 - 29) =     16.14104  eV     1   --> A              
     e( 30 - 30) =     17.63288  eV     1   --> A              
     e( 31 - 31) =     17.78891  eV     1   --> A              
     e( 32 - 32) =     18.20080  eV     1   --> A              
     e( 33 - 33) =     18.36248  eV     1   --> A              
     e( 34 - 34) =     18.54586  eV     1   --> A              
     e( 35 - 35) =     19.34088  eV     1   --> A              
     e( 36 - 36) =     19.36513  eV     1   --> A              

 **************************************************************************

 **************************************************************************

                    xk=(   0.23333,   0.50000,   0.76667  )

     Band symmetry, C_1 (1)     point group:

     e(  1 -  1) =    -77.09118  eV     1   --> A              
     e(  2 -  2) =    -63.21972  eV     1   --> A              
     e(  3 -  3) =    -60.50775  eV     1   --> A              
     e(  4 -  4) =    -40.42592  eV     1   --> A              
     e(  5 -  5) =    -40.42559  eV     1   --> A              
     e(  6 -  6) =    -40.42526  eV     1   --> A              
     e(  7 -  7) =    -31.98506  eV     1   --> A              
     e(  8 -  8) =    -31.98343  eV     1   --> A              
     e(  9 -  9) =    -31.97949  eV     1   --> A              
     e( 10 - 10) =    -29.32414  eV     1   --> A              
     e( 11 - 11) =    -29.31911  eV     1   --> A              
     e( 12 - 12) =    -29.31833  eV     1   --> A              
     e( 13 - 13) =      2.50160  eV     1   --> A              
     e( 14 - 14) =      2.50858  eV     1   --> A              
     e( 15 - 15) =      2.52215  eV     1   --> A              
     e( 16 - 16) =      2.55307  eV     1   --> A              
     e( 17 - 17) =      2.56685  eV     1   --> A              
     e( 18 - 18) =      9.48583  eV     1   --> A              
     e( 19 - 19) =     11.58124  eV     1   --> A              
     e( 20 - 20) =     12.99350  eV     1   --> A              
     e( 21 - 21) =     13.93586  eV     1   --> A              
     e( 22 - 22) =     14.26035  eV     1   --> A              
     e( 23 - 23) =     14.84337  eV     1   --> A              
     e( 24 - 24) =     15.03870  eV     1   --> A              
     e( 25 - 25) =     15.23374  eV     1   --> A              
     e( 26 - 26) =     15.36601  eV     1   --> A              
     e( 27 - 27) =     15.88943  eV     1   --> A              
     e( 28 - 28) =     15.92156  eV     1   --> A              
     e( 29 - 29) =     16.12926  eV     1   --> A              
     e( 30 - 30) =     17.64901  eV     1   --> A              
     e( 31 - 31) =     17.79185  eV     1   --> A              
     e( 32 - 32) =     18.22409  eV     1   --> A              
     e( 33 - 33) =     18.37915  eV     1   --> A              
     e( 34 - 34) =     18.54449  eV     1   --> A              
     e( 35 - 35) =     19.46826  eV     1   --> A              
     e( 36 - 36) =     19.48254  eV     1   --> A              

 **************************************************************************

 **************************************************************************

                    xk=(   0.25000,   0.50000,   0.75000  )

     Band symmetry, C_1 (1)     point group:

     e(  1 -  1) =    -77.09118  eV     1   --> A              
     e(  2 -  2) =    -63.21973  eV     1   --> A              
     e(  3 -  3) =    -60.50774  eV     1   --> A              
     e(  4 -  4) =    -40.42590  eV     1   --> A              
     e(  5 -  5) =    -40.42558  eV     1   --> A              
     e(  6 -  6) =    -40.42527  eV     1   --> A              
     e(  7 -  7) =    -31.98497  eV     1   --> A              
     e(  8 -  8) =    -31.98334  eV     1   --> A              
     e(  9 -  9) =    -31.97961  eV     1   --> A              
     e( 10 - 10) =    -29.32405  eV     1   --> A              
     e( 11 - 11) =    -29.31912  eV     1   --> A              
     e( 12 - 12) =    -29.31843  eV     1   --> A              
     e( 13 - 13) =      2.50143  eV     1   --> A              
     e( 14 - 14) =      2.50915  eV     1   --> A              
     e( 15 - 15) =      2.52138  eV     1   --> A              
     e( 16 - 16) =      2.55403  eV     1   --> A              
     e( 17 - 17) =      2.56649  eV     1   --> A              
     e( 18 - 18) =      9.45097  eV     1   --> A              
     e( 19 - 19) =     11.51775  eV     1   --> A              
     e( 20 - 20) =     13.06026  eV     1   --> A              
     e( 21 - 21) =     13.91715  eV     1   --> A              
     e( 22 - 22) =     14.29851  eV     1   --> A              
     e( 23 - 23) =     14.84458  eV     1   --> A              
     e( 24 - 24) =     15.01836  eV     1   --> A              
     e( 25 - 25) =     15.23743  eV     1   --> A              
     e( 26 - 26) =     15.36668  eV     1   --> A              
     e( 27 - 27) =     15.88608  eV     1   --> A              
     e( 28 - 28) =     15.92338  eV     1   --> A              
     e( 29 - 29) =     16.11626  eV     1   --> A              
     e( 30 - 30) =     17.66412  eV     1   --> A              
     e( 31 - 31) =     17.79474  eV     1   --> A              
     e( 32 - 32) =     18.24936  eV     1   --> A              
     e( 33 - 33) =     18.39501  eV     1   --> A              
     e( 34 - 34) =     18.54312  eV     1   --> A              
     e( 35 - 35) =     19.60159  eV     1   --> A              
     e( 36 - 36) =     19.61095  eV     1   --> A              

 **************************************************************************

 **************************************************************************

                    xk=(   0.26667,   0.50000,   0.73333  )

     Band symmetry, C_1 (1)     point group:

     e(  1 -  1) =    -77.09118  eV     1   --> A              
     e(  2 -  2) =    -63.21974  eV     1   --> A              
     e(  3 -  3) =    -60.50772  eV     1   --> A              
     e(  4 -  4) =    -40.42588  eV     1   --> A              
     e(  5 -  5) =    -40.42557  eV     1   --> A              
     e(  6 -  6) =    -40.42528  eV     1   --> A              
     e(  7 -  7) =    -31.98486  eV     1   --> A              
     e(  8 -  8) =    -31.98325  eV     1   --> A              
     e(  9 -  9) =    -31.97975  eV     1   --> A              
     e( 10 - 10) =    -29.32397  eV     1   --> A              
     e( 11 - 11) =    -29.31913  eV     1   --> A              
     e( 12 - 12) =    -29.31853  eV     1   --> A              
     e( 13 - 13) =      2.50124  eV     1   --> A              
     e( 14 - 14) =      2.50972  eV     1   --> A              
     e( 15 - 15) =      2.52062  eV     1   --> A              
     e( 16 - 16) =      2.55499  eV     1   --> A              
     e( 17 - 17) =      2.56614  eV     1   --> A              
     e( 18 - 18) =      9.41724  eV     1   --> A              
     e( 19 - 19) =     11.45675  eV     1   --> A              
     e( 20 - 20) =     13.12660  eV     1   --> A              
     e( 21 - 21) =     13.89439  eV     1   --> A              
     e( 22 - 22) =     14.34138  eV     1   --> A              
     e( 23 - 23) =     14.84514  eV     1   --> A              
     e( 24 - 24) =     14.99783  eV     1   --> A              
     e( 25 - 25) =     15.24046  eV     1   --> A              
     e( 26 - 26) =     15.36546  eV     1   --> A              
     e( 27 - 27) =     15.88462  eV     1   --> A              
     e( 28 - 28) =     15.92410  eV     1   --> A              
     e( 29 - 29) =     16.10214  eV     1   --> A              
     e( 30 - 30) =     17.67834  eV     1   --> A              
     e( 31 - 31) =     17.79738  eV     1   --> A              
     e( 32 - 32) =     18.27607  eV     1   --> A              
     e( 33 - 33) =     18.41026  eV     1   --> A              
     e( 34 - 34) =     18.54182  eV     1   --> A              
     e( 35 - 35) =     19.73513  eV     1   --> A              
     e( 36 - 36) =     19.75534  eV     1   --> A              

 **************************************************************************

 **************************************************************************

                    xk=(   0.28333,   0.50000,   0.71667  )

     Band symmetry, C_1 (1)     point group:

     e(  1 -  1) =    -77.09118  eV     1   --> A              
     e(  2 -  2) =    -63.21975  eV     1   --> A              
     e(  3 -  3) =    -60.50771  eV     1   --> A              
     e(  4 -  4) =    -40.42586  eV     1   --> A              
     e(  5 -  5) =    -40.42556  eV     1   --> A              
     e(  6 -  6) =    -40.42529  eV     1   --> A              
     e(  7 -  7) =    -31.98475  eV     1   --> A              
     e(  8 -  8) =    -31.98316  eV     1   --> A              
     e(  9 -  9) =    -31.97990  eV     1   --> A              
     e( 10 - 10) =    -29.32388  eV     1   --> A              
     e( 11 - 11) =    -29.31913  eV     1   --> A              
     e( 12 - 12) =    -29.31862  eV     1   --> A              
     e( 13 - 13) =      2.50102  eV     1   --> A              
     e( 14 - 14) =      2.51029  eV     1   --> A              
     e( 15 - 15) =      2.51988  eV     1   --> A              
     e( 16 - 16) =      2.55595  eV     1   --> A              
     e( 17 - 17) =      2.56580  eV     1   --> A              
     e( 18 - 18) =      9.38490  eV     1   --> A              
     e( 19 - 19) =     11.39864  eV     1   --> A              
     e( 20 - 20) =     13.19182  eV     1   --> A              
     e( 21 - 21) =     13.87004  eV     1   --> A              
     e( 22 - 22) =     14.38651  eV     1   --> A              
     e( 23 - 23) =     14.84514  eV     1   --> A              
     e( 24 - 24) =     14.97754  eV     1   --> A              
     e( 25 - 25) =     15.24271  eV     1   --> A              
     e( 26 - 26) =     15.36234  eV     1   --> A              
     e( 27 - 27) =     15.88483  eV     1   --> A              
     e( 28 - 28) =     15.92390  eV     1   --> A              
     e( 29 - 29) =     16.08704  eV     1   --> A              
     e( 30 - 30) =     17.69182  eV     1   --> A              
     e( 31 - 31) =     17.79958  eV     1   --> A              
     e( 32 - 32) =     18.30361  eV     1   --> A              
     e( 33 - 33) =     18.42506  eV     1   --> A              
     e( 34 - 34) =     18.54060  eV     1   --> A              
     e( 35 - 35) =     19.87330  eV     1   --> A              
     e( 36 - 36) =     19.91039  eV     1   --> A              

 **************************************************************************

 **************************************************************************

                    xk=(   0.30000,   0.50000,   0.70000  )

     Band symmetry, C_1 (1)     point group:

     e(  1 -  1) =    -77.09119  eV     1   --> A              
     e(  2 -  2) =    -63.21976  eV     1   --> A              
     e(  3 -  3) =    -60.50770  eV     1   --> A              
     e(  4 -  4) =    -40.42584  eV     1   --> A              
     e(  5 -  5) =    -40.42555  eV     1   --> A              
     e(  6 -  6) =    -40.42530  eV     1   --> A              
     e(  7 -  7) =    -31.98461  eV     1   --> A              
     e(  8 -  8) =    -31.98308  eV     1   --> A              
     e(  9 -  9) =    -31.98005  eV     1   --> A              
     e( 10 - 10) =    -29.32380  eV     1   --> A              
     e( 11 - 11) =    -29.31914  eV     1   --> A              
     e( 12 - 12) =    -29.31871  eV     1   --> A              
     e( 13 - 13) =      2.50079  eV     1   --> A              
     e( 14 - 14) =      2.51086  eV     1   --> A              
     e( 15 - 15) =      2.51917  eV     1   --> A              
     e( 16 - 16) =      2.55689  eV     1   --> A              
     e( 17 - 17) =      2.56548  eV     1   --> A              
     e( 18 - 18) =      9.35418  eV     1   --> A              
     e( 19 - 19) =     11.34376  eV     1   --> A              
     e( 20 - 20) =     13.25525  eV     1   --> A              
     e( 21 - 21) =     13.84553  eV     1   --> A              
     e( 22 - 22) =     14.43249  eV     1   --> A              
     e( 23 - 23) =     14.84469  eV     1   --> A              
     e( 24 - 24) =     14.95784  eV     1   --> A              
     e( 25 - 25) =     15.24411  eV     1   --> A              
     e( 26 - 26) =     15.35736  eV     1   --> A              
     e( 27 - 27) =     15.88643  eV     1   --> A              
     e( 28 - 28) =     15.92302  eV     1   --> A              
     e( 29 - 29) =     16.07116  eV     1   --> A              
     e( 30 - 30) =     17.70473  eV     1   --> A              
     e( 31 - 31) =     17.80125  eV     1   --> A              
     e( 32 - 32) =     18.33132  eV     1   --> A              
     e( 33 - 33) =     18.43952  eV     1   --> A              
     e( 34 - 34) =     18.53953  eV     1   --> A              
     e( 35 - 35) =     20.01731  eV     1   --> A              
     e( 36 - 36) =     20.07398  eV     1   --> A              

 **************************************************************************

 **************************************************************************

                    xk=(   0.31667,   0.50000,   0.68333  )

     Band symmetry, C_1 (1)     point group:

     e(  1 -  1) =    -77.09119  eV     1   --> A              
     e(  2 -  2) =    -63.21977  eV     1   --> A              
     e(  3 -  3) =    -60.50769  eV     1   --> A              
     e(  4 -  4) =    -40.42582  eV     1   --> A              
     e(  5 -  5) =    -40.42554  eV     1   --> A              
     e(  6 -  6) =    -40.42531  eV     1   --> A              
     e(  7 -  7) =    -31.98447  eV     1   --> A              
     e(  8 -  8) =    -31.98301  eV     1   --> A              
     e(  9 -  9) =    -31.98021  eV     1   --> A              
     e( 10 - 10) =    -29.32372  eV     1   --> A              
     e( 11 - 11) =    -29.31915  eV     1   --> A              
     e( 12 - 12) =    -29.31879  eV     1   --> A              
     e( 13 - 13) =      2.50053  eV     1   --> A              
     e( 14 - 14) =      2.51141  eV     1   --> A              
     e( 15 - 15) =      2.51850  eV     1   --> A              
     e( 16 - 16) =      2.55780  eV     1   --> A              
     e( 17 - 17) =      2.56518  eV     1   --> A              
     e( 18 - 18) =      9.32529  eV     1   --> A              
     e( 19 - 19) =     11.29239  eV     1   --> A              
     e( 20 - 20) =     13.31627  eV     1   --> A              
     e( 21 - 21) =     13.82169  eV     1   --> A              
     e( 22 - 22) =     14.47844  eV     1   --> A              
     e( 23 - 23) =     14.84388  eV     1   --> A              
     e( 24 - 24) =     14.93908  eV     1   --> A              
     e( 25 - 25) =     15.24464  eV     1   --> A              
     e( 26 - 26) =     15.35053  eV     1   --> A              
     e( 27 - 27) =     15.88910  eV     1   --> A              
     e( 28 - 28) =     15.92175  eV     1   --> A              
     e( 29 - 29) =     16.05472  eV     1   --> A              
     e( 30 - 30) =     17.71713  eV     1   --> A              
     e( 31 - 31) =     17.80235  eV     1   --> A              
     e( 32 - 32) =     18.35859  eV     1   --> A              
     e( 33 - 33) =     18.45372  eV     1   --> A              
     e( 34 - 34) =     18.53865  eV     1   --> A              
     e( 35 - 35) =     20.16703  eV     1   --> A              
     e( 36 - 36) =     20.24525  eV     1   --> A              

 **************************************************************************

 **************************************************************************

                    xk=(   0.33333,   0.50000,   0.66667  )

     Band symmetry, C_1 (1)     point group:

     e(  1 -  1) =    -77.09119  eV     1   --> A              
     e(  2 -  2) =    -63.21978  eV     1   --> A              
     e(  3 -  3) =    -60.50768  eV     1   --> A              
     e(  4 -  4) =    -40.42580  eV     1   --> A              
     e(  5 -  5) =    -40.42553  eV     1   --> A              
     e(  6 -  6) =    -40.42532  eV     1   --> A              
     e(  7 -  7) =    -31.98432  eV     1   --> A              
     e(  8 -  8) =    -31.98294  eV     1   --> A              
     e(  9 -  9) =    -31.98038  eV     1   --> A              
     e( 10 - 10) =    -29.32365  eV     1   --> A              
     e( 11 - 11) =    -29.31916  eV     1   --> A              
     e( 12 - 12) =    -29.31887  eV     1   --> A              
     e( 13 - 13) =      2.50027  eV     1   --> A              
     e( 14 - 14) =      2.51193  eV     1   --> A              
     e( 15 - 15) =      2.51787  eV     1   --> A              
     e( 16 - 16) =      2.55868  eV     1   --> A              
     e( 17 - 17) =      2.56489  eV     1   --> A              
     e( 18 - 18) =      9.29839  eV     1   --> A              
     e( 19 - 19) =     11.24478  eV     1   --> A              
     e( 20 - 20) =     13.37428  eV     1   --> A              
     e( 21 - 21) =     13.79905  eV     1   --> A              
     e( 22 - 22) =     14.52378  eV     1   --> A              
     e( 23 - 23) =     14.84280  eV     1   --> A              
     e( 24 - 24) =     14.92154  eV     1   --> A              
     e( 25 - 25) =     15.24435  eV     1   --> A              
     e( 26 - 26) =     15.34186  eV     1   --> A              
     e( 27 - 27) =     15.89251  eV     1   --> A              
     e( 28 - 28) =     15.92034  eV     1   --> A              
     e( 29 - 29) =     16.03802  eV     1   --> A              
     e( 30 - 30) =     17.72905  eV     1   --> A              
     e( 31 - 31) =     17.80289  eV     1   --> A              
     e( 32 - 32) =     18.38484  eV     1   --> A              
     e( 33 - 33) =     18.46765  eV     1   --> A              
     e( 34 - 34) =     18.53802  eV     1   --> A              
     e( 35 - 35) =     20.32218  eV     1   --> A              
     e( 36 - 36) =     20.42340  eV     1   --> A              

 **************************************************************************

 **************************************************************************

                    xk=(   0.35000,   0.50000,   0.65000  )

     Band symmetry, C_1 (1)     point group:

     e(  1 -  1) =    -77.09119  eV     1   --> A              
     e(  2 -  2) =    -63.21979  eV     1   --> A              
     e(  3 -  3) =    -60.50767  eV     1   --> A              
     e(  4 -  4) =    -40.42578  eV     1   --> A              
     e(  5 -  5) =    -40.42552  eV     1   --> A              
     e(  6 -  6) =    -40.42534  eV     1   --> A              
     e(  7 -  7) =    -31.98416  eV     1   --> A              
     e(  8 -  8) =    -31.98288  eV     1   --> A              
     e(  9 -  9) =    -31.98055  eV     1   --> A              
     e( 10 - 10) =    -29.32359  eV     1   --> A              
     e( 11 - 11) =    -29.31917  eV     1   --> A              
     e( 12 - 12) =    -29.31894  eV     1   --> A              
     e( 13 - 13) =      2.50000  eV     1   --> A              
     e( 14 - 14) =      2.51243  eV     1   --> A              
     e( 15 - 15) =      2.51729  eV     1   --> A              
     e( 16 - 16) =      2.55951  eV     1   --> A              
     e( 17 - 17) =      2.56462  eV     1   --> A              
     e( 18 - 18) =      9.27366  eV     1   --> A              
     e( 19 - 19) =     11.20114  eV     1   --> A              
     e( 20 - 20) =     13.42871  eV     1   --> A              
     e( 21 - 21) =     13.77795  eV     1   --> A              
     e( 22 - 22) =     14.56804  eV     1   --> A              
     e( 23 - 23) =     14.84155  eV     1   --> A              
     e( 24 - 24) =     14.90545  eV     1   --> A              
     e( 25 - 25) =     15.24334  eV     1   --> A              
     e( 26 - 26) =     15.33143  eV     1   --> A              
     e( 27 - 27) =     15.89637  eV     1   --> A              
     e( 28 - 28) =     15.91904  eV     1   --> A              
     e( 29 - 29) =     16.02135  eV     1   --> A              
     e( 30 - 30) =     17.74045  eV     1   --> A              
     e( 31 - 31) =     17.80295  eV     1   --> A              
     e( 32 - 32) =     18.40952  eV     1   --> A              
     e( 33 - 33) =     18.48127  eV     1   --> A              
     e( 34 - 34) =     18.53772  eV     1   --> A              
     e( 35 - 35) =     20.48239  eV     1   --> A              
     e( 36 - 36) =     20.60760  eV     1   --> A              

 **************************************************************************

 **************************************************************************

                    xk=(   0.36667,   0.50000,   0.63333  )

     Band symmetry, C_1 (1)     point group:

     e(  1 -  1) =    -77.09119  eV     1   --> A              
     e(  2 -  2) =    -63.21980  eV     1   --> A              
     e(  3 -  3) =    -60.50766  eV     1   --> A              
     e(  4 -  4) =    -40.42575  eV     1   --> A              
     e(  5 -  5) =    -40.42551  eV     1   --> A              
     e(  6 -  6) =    -40.42536  eV     1   --> A              
     e(  7 -  7) =    -31.98399  eV     1   --> A              
     e(  8 -  8) =    -31.98282  eV     1   --> A              
     e(  9 -  9) =    -31.98074  eV     1   --> A              
     e( 10 - 10) =    -29.32353  eV     1   --> A              
     e( 11 - 11) =    -29.31918  eV     1   --> A              
     e( 12 - 12) =    -29.31900  eV     1   --> A              
     e( 13 - 13) =      2.49972  eV     1   --> A              
     e( 14 - 14) =      2.51290  eV     1   --> A              
     e( 15 - 15) =      2.51677  eV     1   --> A              
     e( 16 - 16) =      2.56028  eV     1   --> A              
     e( 17 - 17) =      2.56438  eV     1   --> A              
     e( 18 - 18) =      9.25121  eV     1   --> A              
     e( 19 - 19) =     11.16166  eV     1   --> A              
     e( 20 - 20) =     13.47903  eV     1   --> A              
     e( 21 - 21) =     13.75864  eV     1   --> A              
     e( 22 - 22) =     14.61079  eV     1   --> A              
     e( 23 - 23) =     14.84020  eV     1   --> A              
     e( 24 - 24) =     14.89098  eV     1   --> A              
     e( 25 - 25) =     15.24172  eV     1   --> A              
     e( 26 - 26) =     15.31935  eV     1   --> A              
     e( 27 - 27) =     15.90040  eV     1   --> A              
     e( 28 - 28) =     15.91803  eV     1   --> A              
     e( 29 - 29) =     16.00503  eV     1   --> A              
     e( 30 - 30) =     17.75121  eV     1   --> A              
     e( 31 - 31) =     17.80262  eV     1   --> A              
     e( 32 - 32) =     18.43213  eV     1   --> A              
     e( 33 - 33) =     18.49446  eV     1   --> A              
     e( 34 - 34) =     18.53785  eV     1   --> A              
     e( 35 - 35) =     20.64716  eV     1   --> A              
     e( 36 - 36) =     20.79695  eV     1   --> A              

 **************************************************************************

 **************************************************************************

                    xk=(   0.38333,   0.50000,   0.61667  )

     Band symmetry, C_1 (1)     point group:

     e(  1 -  1) =    -77.09119  eV     1   --> A              
     e(  2 -  2) =    -63.21980  eV     1   --> A              
     e(  3 -  3) =    -60.50765  eV     1   --> A              
     e(  4 -  4) =    -40.42573  eV     1   --> A              
     e(  5 -  5) =    -40.42551  eV     1   --> A              
     e(  6 -  6) =    -40.42537  eV     1   --> A              
     e(  7 -  7) =    -31.98381  eV     1   --> A              
     e(  8 -  8) =    -31.98277  eV     1   --> A              
     e(  9 -  9) =    -31.98092  eV     1   --> A              
     e( 10 - 10) =    -29.32347  eV     1   --> A              
     e( 11 - 11) =    -29.31918  eV     1   --> A              
     e( 12 - 12) =    -29.31906  eV     1   --> A              
     e( 13 - 13) =      2.49946  eV     1   --> A              
     e( 14 - 14) =      2.51332  eV     1   --> A              
     e( 15 - 15) =      2.51630  eV     1   --> A              
     e( 16 - 16) =      2.56098  eV     1   --> A              
     e( 17 - 17) =      2.56417  eV     1   --> A              
     e( 18 - 18) =      9.23116  eV     1   --> A              
     e( 19 - 19) =     11.12648  eV     1   --> A              
     e( 20 - 20) =     13.52473  eV     1   --> A              
     e( 21 - 21) =     13.74130  eV     1   --> A              
     e( 22 - 22) =     14.65158  eV     1   --> A              
     e( 23 - 23) =     14.83884  eV     1   --> A              
     e( 24 - 24) =     14.87825  eV     1   --> A              
     e( 25 - 25) =     15.23965  eV     1   --> A              
     e( 26 - 26) =     15.30586  eV     1   --> A              
     e( 27 - 27) =     15.90437  eV     1   --> A              
     e( 28 - 28) =     15.91741  eV     1   --> A              
     e( 29 - 29) =     15.98942  eV     1   --> A              
     e( 30 - 30) =     17.76120  eV     1   --> A              
     e( 31 - 31) =     17.80199  eV     1   --> A              
     e( 32 - 32) =     18.45217  eV     1   --> A              
     e( 33 - 33) =     18.50704  eV     1   --> A              
     e( 34 - 34) =     18.53857  eV     1   --> A              
     e( 35 - 35) =     20.81577  eV     1   --> A              
     e( 36 - 36) =     20.99047  eV     1   --> A              

 **************************************************************************

 **************************************************************************

                    xk=(   0.40000,   0.50000,   0.60000  )

     Band symmetry, C_1 (1)     point group:

     e(  1 -  1) =    -77.09119  eV     1   --> A              
     e(  2 -  2) =    -63.21981  eV     1   --> A              
     e(  3 -  3) =    -60.50765  eV     1   --> A              
     e(  4 -  4) =    -40.42570  eV     1   --> A              
     e(  5 -  5) =    -40.42550  eV     1   --> A              
     e(  6 -  6) =    -40.42539  eV     1   --> A              
     e(  7 -  7) =    -31.98363  eV     1   --> A              
     e(  8 -  8) =    -31.98273  eV     1   --> A              
     e(  9 -  9) =    -31.98111  eV     1   --> A              
     e( 10 - 10) =    -29.32343  eV     1   --> A              
     e( 11 - 12) =    -29.31919  eV     2   -->   2 A              
     e( 13 - 13) =      2.49921  eV     1   --> A              
     e( 14 - 14) =      2.51370  eV     1   --> A              
     e( 15 - 15) =      2.51590  eV     1   --> A              
     e( 16 - 16) =      2.56161  eV     1   --> A              
     e( 17 - 17) =      2.56398  eV     1   --> A              
     e( 18 - 18) =      9.21361  eV     1   --> A              
     e( 19 - 19) =     11.09574  eV     1   --> A              
     e( 20 - 20) =     13.56534  eV     1   --> A              
     e( 21 - 21) =     13.72605  eV     1   --> A              
     e( 22 - 22) =     14.68989  eV     1   --> A              
     e( 23 - 23) =     14.83754  eV     1   --> A              
     e( 24 - 24) =     14.86731  eV     1   --> A              
     e( 25 - 25) =     15.23732  eV     1   --> A              
     e( 26 - 26) =     15.29134  eV     1   --> A              
     e( 27 - 27) =     15.90808  eV     1   --> A              
     e( 28 - 28) =     15.91721  eV     1   --> A              
     e( 29 - 29) =     15.97486  eV     1   --> A              
     e( 30 - 30) =     17.77027  eV     1   --> A              
     e( 31 - 31) =     17.80117  eV     1   --> A              
     e( 32 - 32) =     18.46918  eV     1   --> A              
     e( 33 - 33) =     18.51880  eV     1   --> A              
     e( 34 - 34) =     18.54006  eV     1   --> A              
     e( 35 - 35) =     20.98690  eV     1   --> A              
     e( 36 - 36) =     21.18711  eV     1   --> A              

 **************************************************************************

 **************************************************************************

                    xk=(   0.41667,   0.50000,   0.58333  )

     Band symmetry, C_1 (1)     point group:

     e(  1 -  1) =    -77.09119  eV     1   --> A              
     e(  2 -  2) =    -63.21982  eV     1   --> A              
     e(  3 -  3) =    -60.50764  eV     1   --> A              
     e(  4 -  4) =    -40.42568  eV     1   --> A              
     e(  5 -  6) =    -40.42549  eV     2   -->   2 A              
     e(  7 -  7) =    -31.98344  eV     1   --> A              
     e(  8 -  8) =    -31.98269  eV     1   --> A              
     e(  9 -  9) =    -31.98131  eV     1   --> A              
     e( 10 - 10) =    -29.32339  eV     1   --> A              
     e( 11 - 12) =    -29.31920  eV     2   -->   2 A              
     e( 13 - 13) =      2.49898  eV     1   --> A              
     e( 14 - 14) =      2.51402  eV     1   --> A              
     e( 15 - 15) =      2.51556  eV     1   --> A              
     e( 16 - 16) =      2.56216  eV     1   --> A              
     e( 17 - 17) =      2.56382  eV     1   --> A              
     e( 18 - 18) =      9.19862  eV     1   --> A              
     e( 19 - 19) =     11.06955  eV     1   --> A              
     e( 20 - 20) =     13.60046  eV     1   --> A              
     e( 21 - 21) =     13.71300  eV     1   --> A              
     e( 22 - 22) =     14.72508  eV     1   --> A              
     e( 23 - 23) =     14.83637  eV     1   --> A              
     e( 24 - 24) =     14.85814  eV     1   --> A              
     e( 25 - 25) =     15.23491  eV     1   --> A              
     e( 26 - 26) =     15.27635  eV     1   --> A              
     e( 27 - 27) =     15.91138  eV     1   --> A              
     e( 28 - 28) =     15.91743  eV     1   --> A              
     e( 29 - 29) =     15.96170  eV     1   --> A              
     e( 30 - 30) =     17.77825  eV     1   --> A              
     e( 31 - 31) =     17.80027  eV     1   --> A              
     e( 32 - 32) =     18.48277  eV     1   --> A              
     e( 33 - 33) =     18.52945  eV     1   --> A              
     e( 34 - 34) =     18.54249  eV     1   --> A              
     e( 35 - 35) =     21.15806  eV     1   --> A              
     e( 36 - 36) =     21.38572  eV     1   --> A              

 **************************************************************************

 **************************************************************************

                    xk=(   0.43333,   0.50000,   0.56667  )

     Band symmetry, C_1 (1)     point group:

     e(  1 -  1) =    -77.09119  eV     1   --> A              
     e(  2 -  2) =    -63.21982  eV     1   --> A              
     e(  3 -  3) =    -60.50763  eV     1   --> A              
     e(  4 -  4) =    -40.42566  eV     1   --> A              
     e(  5 -  6) =    -40.42549  eV     2   -->   2 A              
     e(  7 -  7) =    -31.98324  eV     1   --> A              
     e(  8 -  8) =    -31.98266  eV     1   --> A              
     e(  9 -  9) =    -31.98151  eV     1   --> A              
     e( 10 - 10) =    -29.32336  eV     1   --> A              
     e( 11 - 12) =    -29.31921  eV     2   -->   2 A              
     e( 13 - 13) =      2.49878  eV     1   --> A              
     e( 14 - 14) =      2.51429  eV     1   --> A              
     e( 15 - 15) =      2.51528  eV     1   --> A              
     e( 16 - 16) =      2.56261  eV     1   --> A              
     e( 17 - 17) =      2.56368  eV     1   --> A              
     e( 18 - 18) =      9.18628  eV     1   --> A              
     e( 19 - 19) =     11.04800  eV     1   --> A              
     e( 20 - 20) =     13.62971  eV     1   --> A              
     e( 21 - 21) =     13.70223  eV     1   --> A              
     e( 22 - 22) =     14.75637  eV     1   --> A              
     e( 23 - 23) =     14.83542  eV     1   --> A              
     e( 24 - 24) =     14.85066  eV     1   --> A              
     e( 25 - 25) =     15.23260  eV     1   --> A              
     e( 26 - 26) =     15.26167  eV     1   --> A              
     e( 27 - 27) =     15.91417  eV     1   --> A              
     e( 28 - 28) =     15.91798  eV     1   --> A              
     e( 29 - 29) =     15.95026  eV     1   --> A              
     e( 30 - 30) =     17.78500  eV     1   --> A              
     e( 31 - 31) =     17.79940  eV     1   --> A              
     e( 32 - 32) =     18.49277  eV     1   --> A              
     e( 33 - 33) =     18.53870  eV     1   --> A              
     e( 34 - 34) =     18.54583  eV     1   --> A              
     e( 35 - 35) =     21.32398  eV     1   --> A              
     e( 36 - 36) =     21.58505  eV     1   --> A              

 **************************************************************************

 **************************************************************************

                    xk=(   0.45000,   0.50000,   0.55000  )

     Band symmetry, C_1 (1)     point group:

     e(  1 -  1) =    -77.09119  eV     1   --> A              
     e(  2 -  2) =    -63.21982  eV     1   --> A              
     e(  3 -  3) =    -60.50763  eV     1   --> A              
     e(  4 -  4) =    -40.42564  eV     1   --> A              
     e(  5 -  6) =    -40.42549  eV     2   -->   2 A              
     e(  7 -  7) =    -31.98305  eV     1   --> A              
     e(  8 -  8) =    -31.98264  eV     1   --> A              
     e(  9 -  9) =    -31.98170  eV     1   --> A              
     e( 10 - 10) =    -29.32333  eV     1   --> A              
     e( 11 - 12) =    -29.31922  eV     2   -->   2 A              
     e( 13 - 13) =      2.49862  eV     1   --> A              
     e( 14 - 14) =      2.51451  eV     1   --> A              
     e( 15 - 15) =      2.51507  eV     1   --> A              
     e( 16 - 16) =      2.56297  eV     1   --> A              
     e( 17 - 17) =      2.56358  eV     1   --> A              
     e( 18 - 18) =      9.17663  eV     1   --> A              
     e( 19 - 19) =     11.03117  eV     1   --> A              
     e( 20 - 20) =     13.65279  eV     1   --> A              
     e( 21 - 21) =     13.69380  eV     1   --> A              
     e( 22 - 22) =     14.78282  eV     1   --> A              
     e( 23 - 23) =     14.83474  eV     1   --> A              
     e( 24 - 24) =     14.84469  eV     1   --> A              
     e( 25 - 25) =     15.23059  eV     1   --> A              
     e( 26 - 26) =     15.24829  eV     1   --> A              
     e( 27 - 27) =     15.91640  eV     1   --> A              
     e( 28 - 28) =     15.91876  eV     1   --> A              
     e( 29 - 29) =     15.94082  eV     1   --> A              
     e( 30 - 30) =     17.79038  eV     1   --> A              
     e( 31 - 31) =     17.79862  eV     1   --> A              
     e( 32 - 32) =     18.49948  eV     1   --> A              
     e( 33 - 33) =     18.54627  eV     1   --> A              
     e( 34 - 34) =     18.54965  eV     1   --> A              
     e( 35 - 35) =     21.47312  eV     1   --> A              
     e( 36 - 36) =     21.78376  eV     1   --> A              

 **************************************************************************

 **************************************************************************

                    xk=(   0.46667,   0.50000,   0.53333  )

     Band symmetry, C_1 (1)     point group:

     e(  1 -  1) =    -77.09119  eV     1   --> A              
     e(  2 -  2) =    -63.21983  eV     1   --> A              
     e(  3 -  3) =    -60.50763  eV     1   --> A              
     e(  4 -  4) =    -40.42562  eV     1   --> A              
     e(  5 -  6) =    -40.42548  eV     2   -->   2 A              
     e(  7 -  7) =    -31.98286  eV     1   --> A              
     e(  8 -  8) =    -31.98262  eV     1   --> A              
     e(  9 -  9) =    -31.98189  eV     1   --> A              
     e( 10 - 10) =    -29.32332  eV     1   --> A              
     e( 11 - 12) =    -29.31922  eV     2   -->   2 A              
     e( 13 - 13) =      2.49850  eV     1   --> A              
     e( 14 - 14) =      2.51467  eV     1   --> A              
     e( 15 - 15) =      2.51491  eV     1   --> A              
     e( 16 - 16) =      2.56323  eV     1   --> A              
     e( 17 - 17) =      2.56350  eV     1   --> A              
     e( 18 - 18) =      9.16971  eV     1   --> A              
     e( 19 - 19) =     11.01910  eV     1   --> A              
     e( 20 - 20) =     13.66945  eV     1   --> A              
     e( 21 - 21) =     13.68774  eV     1   --> A              
     e( 22 - 22) =     14.80340  eV     1   --> A              
     e( 23 - 23) =     14.83438  eV     1   --> A              
     e( 24 - 24) =     14.84001  eV     1   --> A              
     e( 25 - 25) =     15.22902  eV     1   --> A              
     e( 26 - 26) =     15.23739  eV     1   --> A              
     e( 27 - 27) =     15.91817  eV     1   --> A              
     e( 28 - 28) =     15.91957  eV     1   --> A              
     e( 29 - 29) =     15.93357  eV     1   --> A              
     e( 30 - 30) =     17.79431  eV     1   --> A              
     e( 31 - 31) =     17.79801  eV     1   --> A              
     e( 32 - 32) =     18.50355  eV     1   --> A              
     e( 33 - 33) =     18.55189  eV     1   --> A              
     e( 34 - 34) =     18.55318  eV     1   --> A              
     e( 35 - 35) =     21.58509  eV     1   --> A              
     e( 36 - 36) =     21.98032  eV     1   --> A              

 **************************************************************************

 **************************************************************************

                    xk=(   0.48333,   0.50000,   0.51667  )

     Band symmetry, C_1 (1)     point group:

     e(  1 -  1) =    -77.09119  eV     1   --> A              
     e(  2 -  2) =    -63.21983  eV     1   --> A              
     e(  3 -  3) =    -60.50763  eV     1   --> A              
     e(  4 -  4) =    -40.42560  eV     1   --> A              
     e(  5 -  6) =    -40.42548  eV     2   -->   2 A              
     e(  7 -  8) =    -31.98269  eV     2   -->   2 A              
     e(  9 -  9) =    -31.98206  eV     1   --> A              
     e( 10 - 10) =    -29.32331  eV     1   --> A              
     e( 11 - 12) =    -29.31922  eV     2   -->   2 A              
     e( 13 - 13) =      2.49843  eV     1   --> A              
     e( 14 - 15) =      2.51476  eV     2   -->   2 A              
     e( 16 - 17) =      2.56339  eV     2   -->   2 A              
     e( 18 - 18) =      9.16555  eV     1   --> A              
     e( 19 - 19) =     11.01185  eV     1   --> A              
     e( 20 - 20) =     13.67951  eV     1   --> A              
     e( 21 - 21) =     13.68410  eV     1   --> A              
     e( 22 - 22) =     14.81718  eV     1   --> A              
     e( 23 - 23) =     14.83430  eV     1   --> A              
     e( 24 - 24) =     14.83631  eV     1   --> A              
     e( 25 - 25) =     15.22802  eV     1   --> A              
     e( 26 - 26) =     15.23020  eV     1   --> A              
     e( 27 - 27) =     15.91963  eV     1   --> A              
     e( 28 - 28) =     15.92018  eV     1   --> A              
     e( 29 - 29) =     15.92866  eV     1   --> A              
     e( 30 - 30) =     17.79669  eV     1   --> A              
     e( 31 - 31) =     17.79762  eV     1   --> A              
     e( 32 - 32) =     18.50568  eV     1   --> A              
     e( 33 - 33) =     18.55535  eV     1   --> A              
     e( 34 - 34) =     18.55564  eV     1   --> A              
     e( 35 - 35) =     21.64528  eV     1   --> A              
     e( 36 - 36) =     22.17297  eV     1   --> A              

 **************************************************************************

 **************************************************************************

                    xk=(   0.50000,   0.50000,   0.50000  )

     point group C_3v (3m)  
     there are  3 classes
     the character table:

       E     2C3   3s_v 
A_1    1.00  1.00  1.00
A_2    1.00  1.00 -1.00
E      2.00 -1.00  0.00

     the symmetry operations in each class and the name of the first element:

     E        1
                                                                 
     2C3      2    3
                                                                 
     3s_v     4    5    6
[...]
     e( 17 - 17) =      2.57091  eV     1   --> A              
     e( 18 - 18) =      9.77184  eV     1   --> A              
     e( 19 - 19) =     11.91361  eV     1   --> A              
     e( 20 - 20) =     12.66018  eV     1   --> A              
     e( 21 - 21) =     13.83943  eV     1   --> A              
     e( 22 - 22) =     14.31813  eV     1   --> A              
     e( 23 - 23) =     14.88295  eV     1   --> A              
     e( 24 - 24) =     15.18792  eV     1   --> A              
     e( 25 - 25) =     15.21616  eV     1   --> A              
     e( 26 - 26) =     15.26703  eV     1   --> A              
     e( 27 - 27) =     15.88562  eV     1   --> A              
     e( 28 - 28) =     15.96142  eV     1   --> A              
     e( 29 - 29) =     16.22405  eV     1   --> A              
     e( 30 - 30) =     17.53062  eV     1   --> A              
     e( 31 - 31) =     17.70366  eV     1   --> A              
     e( 32 - 32) =     17.93488  eV     1   --> A              
     e( 33 - 33) =     18.38101  eV     1   --> A              
     e( 34 - 34) =     18.54852  eV     1   --> A              
     e( 35 - 35) =     18.70697  eV     1   --> A              
     e( 36 - 36) =     18.82696  eV     1   --> A              

 **************************************************************************

 **************************************************************************

                    xk=(   0.80000,   0.70000,  -0.00000  )

     Band symmetry, C_1 (1)     point group:

     e(  1 -  1) =    -77.09118  eV     1   --> A              
     e(  2 -  2) =    -63.21966  eV     1   --> A              
     e(  3 -  3) =    -60.50783  eV     1   --> A              
     e(  4 -  4) =    -40.42597  eV     1   --> A              
     e(  5 -  5) =    -40.42568  eV     1   --> A              
     e(  6 -  6) =    -40.42526  eV     1   --> A              
     e(  7 -  7) =    -31.98542  eV     1   --> A              
     e(  8 -  8) =    -31.98398  eV     1   --> A              
     e(  9 -  9) =    -31.97896  eV     1   --> A              
     e( 10 - 10) =    -29.32522  eV     1   --> A              
     e( 11 - 11) =    -29.31842  eV     1   --> A              
     e( 12 - 12) =    -29.31785  eV     1   --> A              
     e( 13 - 13) =      2.49099  eV     1   --> A              
     e( 14 - 14) =      2.51771  eV     1   --> A              
     e( 15 - 15) =      2.52591  eV     1   --> A              
     e( 16 - 16) =      2.54431  eV     1   --> A              
     e( 17 - 17) =      2.57093  eV     1   --> A              
     e( 18 - 18) =      9.76957  eV     1   --> A              
     e( 19 - 19) =     11.90763  eV     1   --> A              
     e( 20 - 20) =     12.66008  eV     1   --> A              
     e( 21 - 21) =     13.85192  eV     1   --> A              
     e( 22 - 22) =     14.31011  eV     1   --> A              
     e( 23 - 23) =     14.88870  eV     1   --> A              
     e( 24 - 24) =     15.18865  eV     1   --> A              
     e( 25 - 25) =     15.21796  eV     1   --> A              
     e( 26 - 26) =     15.26617  eV     1   --> A              
     e( 27 - 27) =     15.88968  eV     1   --> A              
     e( 28 - 28) =     15.95673  eV     1   --> A              
     e( 29 - 29) =     16.22419  eV     1   --> A              
     e( 30 - 30) =     17.53554  eV     1   --> A              
     e( 31 - 31) =     17.69790  eV     1   --> A              
     e( 32 - 32) =     17.93127  eV     1   --> A              
     e( 33 - 33) =     18.39056  eV     1   --> A              
     e( 34 - 34) =     18.54418  eV     1   --> A              
     e( 35 - 35) =     18.72127  eV     1   --> A              
     e( 36 - 36) =     18.83021  eV     1   --> A              

 **************************************************************************

 **************************************************************************

                    xk=(   0.79167,   0.70833,   0.00000  )

     Band symmetry, C_1 (1)     point group:

     e(  1 -  1) =    -77.09118  eV     1   --> A              
     e(  2 -  2) =    -63.21966  eV     1   --> A              
     e(  3 -  3) =    -60.50783  eV     1   --> A              
     e(  4 -  4) =    -40.42597  eV     1   --> A              
     e(  5 -  5) =    -40.42568  eV     1   --> A              
     e(  6 -  6) =    -40.42526  eV     1   --> A              
     e(  7 -  7) =    -31.98543  eV     1   --> A              
     e(  8 -  8) =    -31.98396  eV     1   --> A              
     e(  9 -  9) =    -31.97897  eV     1   --> A              
     e( 10 - 10) =    -29.32523  eV     1   --> A              
     e( 11 - 11) =    -29.31839  eV     1   --> A              
     e( 12 - 12) =    -29.31788  eV     1   --> A              
     e( 13 - 13) =      2.49080  eV     1   --> A              
     e( 14 - 14) =      2.51806  eV     1   --> A              
     e( 15 - 15) =      2.52573  eV     1   --> A              
     e( 16 - 16) =      2.54429  eV     1   --> A              
     e( 17 - 17) =      2.57095  eV     1   --> A              
     e( 18 - 18) =      9.76762  eV     1   --> A              
     e( 19 - 19) =     11.90256  eV     1   --> A              
     e( 20 - 20) =     12.65994  eV     1   --> A              
     e( 21 - 21) =     13.86283  eV     1   --> A              
     e( 22 - 22) =     14.30303  eV     1   --> A              
     e( 23 - 23) =     14.89369  eV     1   --> A              
     e( 24 - 24) =     15.18862  eV     1   --> A              
     e( 25 - 25) =     15.22023  eV     1   --> A              
     e( 26 - 26) =     15.26533  eV     1   --> A              
     e( 27 - 27) =     15.89370  eV     1   --> A              
     e( 28 - 28) =     15.95216  eV     1   --> A              
     e( 29 - 29) =     16.22432  eV     1   --> A              
     e( 30 - 30) =     17.54015  eV     1   --> A              
     e( 31 - 31) =     17.69249  eV     1   --> A              
     e( 32 - 32) =     17.92824  eV     1   --> A              
     e( 33 - 33) =     18.39928  eV     1   --> A              
     e( 34 - 34) =     18.53990  eV     1   --> A              
     e( 35 - 35) =     18.73409  eV     1   --> A              
     e( 36 - 36) =     18.83288  eV     1   --> A              

 **************************************************************************

 **************************************************************************

                    xk=(   0.78333,   0.71667,   0.00000  )

     Band symmetry, C_1 (1)     point group:

     e(  1 -  1) =    -77.09118  eV     1   --> A              
     e(  2 -  2) =    -63.21966  eV     1   --> A              
     e(  3 -  3) =    -60.50783  eV     1   --> A              
     e(  4 -  4) =    -40.42597  eV     1   --> A              
     e(  5 -  5) =    -40.42568  eV     1   --> A              
     e(  6 -  6) =    -40.42526  eV     1   --> A              
     e(  7 -  7) =    -31.98543  eV     1   --> A              
     e(  8 -  8) =    -31.98394  eV     1   --> A              
     e(  9 -  9) =    -31.97898  eV     1   --> A              
     e( 10 - 10) =    -29.32523  eV     1   --> A              
     e( 11 - 11) =    -29.31835  eV     1   --> A              
     e( 12 - 12) =    -29.31790  eV     1   --> A              
     e( 13 - 13) =      2.49065  eV     1   --> A              
     e( 14 - 14) =      2.51837  eV     1   --> A              
     e( 15 - 15) =      2.52558  eV     1   --> A              
     e( 16 - 16) =      2.54426  eV     1   --> A              
     e( 17 - 17) =      2.57096  eV     1   --> A              
     e( 18 - 18) =      9.76601  eV     1   --> A              
     e( 19 - 19) =     11.89839  eV     1   --> A              
     e( 20 - 20) =     12.65977  eV     1   --> A              
     e( 21 - 21) =     13.87203  eV     1   --> A              
     e( 22 - 22) =     14.29702  eV     1   --> A              
     e( 23 - 23) =     14.89787  eV     1   --> A              
     e( 24 - 24) =     15.18817  eV     1   --> A              
     e( 25 - 25) =     15.22261  eV     1   --> A              
     e( 26 - 26) =     15.26451  eV     1   --> A              
     e( 27 - 27) =     15.89759  eV     1   --> A              
     e( 28 - 28) =     15.94782  eV     1   --> A              
     e( 29 - 29) =     16.22444  eV     1   --> A              
     e( 30 - 30) =     17.54430  eV     1   --> A              
     e( 31 - 31) =     17.68761  eV     1   --> A              
     e( 32 - 32) =     17.92579  eV     1   --> A              
     e( 33 - 33) =     18.40700  eV     1   --> A              
     e( 34 - 34) =     18.53587  eV     1   --> A              
     e( 35 - 35) =     18.74513  eV     1   --> A              
     e( 36 - 36) =     18.83498  eV     1   --> A              

 **************************************************************************

 **************************************************************************

                    xk=(   0.77500,   0.72500,  -0.00000  )

     Band symmetry, C_1 (1)     point group:

     e(  1 -  1) =    -77.09118  eV     1   --> A              
     e(  2 -  2) =    -63.21966  eV     1   --> A              
     e(  3 -  3) =    -60.50783  eV     1   --> A              
     e(  4 -  4) =    -40.42597  eV     1   --> A              
     e(  5 -  5) =    -40.42568  eV     1   --> A              
     e(  6 -  6) =    -40.42526  eV     1   --> A              
     e(  7 -  7) =    -31.98544  eV     1   --> A              
     e(  8 -  8) =    -31.98393  eV     1   --> A              
     e(  9 -  9) =    -31.97899  eV     1   --> A              
     e( 10 - 10) =    -29.32524  eV     1   --> A              
     e( 11 - 11) =    -29.31832  eV     1   --> A              
     e( 12 - 12) =    -29.31793  eV     1   --> A              
     e( 13 - 13) =      2.49054  eV     1   --> A              
     e( 14 - 14) =      2.51861  eV     1   --> A              
     e( 15 - 15) =      2.52544  eV     1   --> A              
     e( 16 - 16) =      2.54425  eV     1   --> A              
     e( 17 - 17) =      2.57098  eV     1   --> A              
     e( 18 - 18) =      9.76476  eV     1   --> A              
     e( 19 - 19) =     11.89514  eV     1   --> A              
     e( 20 - 20) =     12.65961  eV     1   --> A              
     e( 21 - 21) =     13.87935  eV     1   --> A              
     e( 22 - 22) =     14.29218  eV     1   --> A              
     e( 23 - 23) =     14.90117  eV     1   --> A              
     e( 24 - 24) =     15.18760  eV     1   --> A              
     e( 25 - 25) =     15.22478  eV     1   --> A              
     e( 26 - 26) =     15.26377  eV     1   --> A              
     e( 27 - 27) =     15.90119  eV     1   --> A              
     e( 28 - 28) =     15.94384  eV     1   --> A              
     e( 29 - 29) =     16.22453  eV     1   --> A              
     e( 30 - 30) =     17.54782  eV     1   --> A              
     e( 31 - 31) =     17.68348  eV     1   --> A              
     e( 32 - 32) =     17.92390  eV     1   --> A              
     e( 33 - 33) =     18.41345  eV     1   --> A              
     e( 34 - 34) =     18.53229  eV     1   --> A              
     e( 35 - 35) =     18.75409  eV     1   --> A              
     e( 36 - 36) =     18.83653  eV     1   --> A              

 **************************************************************************

 **************************************************************************

                    xk=(   0.76667,   0.73333,   0.00000  )

     Band symmetry, C_1 (1)     point group:

     e(  1 -  1) =    -77.09118  eV     1   --> A              
     e(  2 -  2) =    -63.21966  eV     1   --> A              
     e(  3 -  3) =    -60.50783  eV     1   --> A              
     e(  4 -  4) =    -40.42597  eV     1   --> A              
     e(  5 -  5) =    -40.42568  eV     1   --> A              
     e(  6 -  6) =    -40.42526  eV     1   --> A              
     e(  7 -  7) =    -31.98544  eV     1   --> A              
     e(  8 -  8) =    -31.98392  eV     1   --> A              
     e(  9 -  9) =    -31.97899  eV     1   --> A              
     e( 10 - 10) =    -29.32524  eV     1   --> A              
     e( 11 - 11) =    -29.31830  eV     1   --> A              
     e( 12 - 12) =    -29.31795  eV     1   --> A              
     e( 13 - 13) =      2.49045  eV     1   --> A              
     e( 14 - 14) =      2.51880  eV     1   --> A              
     e( 15 - 15) =      2.52534  eV     1   --> A              
     e( 16 - 16) =      2.54423  eV     1   --> A              
     e( 17 - 17) =      2.57099  eV     1   --> A              
     e( 18 - 18) =      9.76385  eV     1   --> A              
     e( 19 - 19) =     11.89282  eV     1   --> A              
     e( 20 - 20) =     12.65948  eV     1   --> A              
     e( 21 - 21) =     13.88469  eV     1   --> A              
     e( 22 - 22) =     14.28864  eV     1   --> A              
     e( 23 - 23) =     14.90357  eV     1   --> A              
     e( 24 - 24) =     15.18707  eV     1   --> A              
     e( 25 - 25) =     15.22651  eV     1   --> A              
     e( 26 - 26) =     15.26316  eV     1   --> A              
     e( 27 - 27) =     15.90427  eV     1   --> A              
     e( 28 - 28) =     15.94050  eV     1   --> A              
     e( 29 - 29) =     16.22460  eV     1   --> A              
     e( 30 - 30) =     17.55052  eV     1   --> A              
     e( 31 - 31) =     17.68033  eV     1   --> A              
     e( 32 - 32) =     17.92256  eV     1   --> A              
     e( 33 - 33) =     18.41838  eV     1   --> A              
     e( 34 - 34) =     18.52944  eV     1   --> A              
     e( 35 - 35) =     18.76072  eV     1   --> A              
     e( 36 - 36) =     18.83757  eV     1   --> A              

 **************************************************************************

 **************************************************************************

                    xk=(   0.75833,   0.74167,   0.00000  )

     Band symmetry, C_1 (1)     point group:

     e(  1 -  1) =    -77.09118  eV     1   --> A              
     e(  2 -  2) =    -63.21966  eV     1   --> A              
     e(  3 -  3) =    -60.50783  eV     1   --> A              
     e(  4 -  4) =    -40.42597  eV     1   --> A              
     e(  5 -  5) =    -40.42568  eV     1   --> A              
     e(  6 -  6) =    -40.42526  eV     1   --> A              
     e(  7 -  7) =    -31.98544  eV     1   --> A              
     e(  8 -  8) =    -31.98391  eV     1   --> A              
     e(  9 -  9) =    -31.97900  eV     1   --> A              
     e( 10 - 10) =    -29.32525  eV     1   --> A              
     e( 11 - 11) =    -29.31828  eV     1   --> A              
     e( 12 - 12) =    -29.31796  eV     1   --> A              
     e( 13 - 13) =      2.49040  eV     1   --> A              
     e( 14 - 14) =      2.51891  eV     1   --> A              
     e( 15 - 15) =      2.52527  eV     1   --> A              
     e( 16 - 16) =      2.54423  eV     1   --> A              
     e( 17 - 17) =      2.57099  eV     1   --> A              
     e( 18 - 18) =      9.76331  eV     1   --> A              
     e( 19 - 19) =     11.89143  eV     1   --> A              
     e( 20 - 20) =     12.65940  eV     1   --> A              
     e( 21 - 21) =     13.88793  eV     1   --> A              
     e( 22 - 22) =     14.28648  eV     1   --> A              
     e( 23 - 23) =     14.90502  eV     1   --> A              
     e( 24 - 24) =     15.18671  eV     1   --> A              
     e( 25 - 25) =     15.22763  eV     1   --> A              
     e( 26 - 26) =     15.26276  eV     1   --> A              
     e( 27 - 27) =     15.90644  eV     1   --> A              
     e( 28 - 28) =     15.93816  eV     1   --> A              
     e( 29 - 29) =     16.22464  eV     1   --> A              
     e( 30 - 30) =     17.55223  eV     1   --> A              
     e( 31 - 31) =     17.67834  eV     1   --> A              
     e( 32 - 32) =     17.92175  eV     1   --> A              
     e( 33 - 33) =     18.42148  eV     1   --> A              
     e( 34 - 34) =     18.52758  eV     1   --> A              
     e( 35 - 35) =     18.76480  eV     1   --> A              
     e( 36 - 36) =     18.83817  eV     1   --> A              

 **************************************************************************

 **************************************************************************

                    xk=(   0.75000,   0.75000,   0.00000  )

     point group C_s (m)    
     there are  2 classes
     the character table:

       E     s    
A'     1.00  1.00
A''    1.00 -1.00

     the symmetry operations in each class and the name of the first element:

     E        1
                                                                 
     s        2
                                                                 

     Band symmetry, C_s (m)     point group:

     e(  1 -  1) =    -77.09118  eV     1   --> A'             
     e(  2 -  2) =    -63.21966  eV     1   --> A'             
     e(  3 -  3) =    -60.50783  eV     1   --> A'             
     e(  4 -  4) =    -40.42597  eV     1   --> A'             
     e(  5 -  5) =    -40.42568  eV     1   --> A''            
     e(  6 -  6) =    -40.42527  eV     1   --> A'             
     e(  7 -  7) =    -31.98544  eV     1   --> A'             
     e(  8 -  8) =    -31.98391  eV     1   --> A''            
     e(  9 -  9) =    -31.97900  eV     1   --> A'             
     e( 10 - 10) =    -29.32525  eV     1   --> A'             
     e( 11 - 11) =    -29.31827  eV     1   --> A'             
     e( 12 - 12) =    -29.31797  eV     1   --> A''            
     e( 13 - 13) =      2.49038  eV     1   --> A'             
     e( 14 - 14) =      2.51895  eV     1   --> A'             
     e( 15 - 15) =      2.52525  eV     1   --> A''            
     e( 16 - 16) =      2.54422  eV     1   --> A'             
     e( 17 - 17) =      2.57099  eV     1   --> A''            
     e( 18 - 18) =      9.76313  eV     1   --> A'             
     e( 19 - 19) =     11.89096  eV     1   --> A'             
     e( 20 - 20) =     12.65937  eV     1   --> A'             
     e( 21 - 21) =     13.88902  eV     1   --> A'             
     e( 22 - 22) =     14.28575  eV     1   --> A''            
     e( 23 - 23) =     14.90551  eV     1   --> A''            
     e( 24 - 24) =     15.18659  eV     1   --> A'             
     e( 25 - 25) =     15.22801  eV     1   --> A''            
     e( 26 - 26) =     15.26261  eV     1   --> A'             
     e( 27 - 27) =     15.90724  eV     1   --> A''            
     e( 28 - 28) =     15.93731  eV     1   --> A'             
     e( 29 - 29) =     16.22465  eV     1   --> A'             
     e( 30 - 30) =     17.55281  eV     1   --> A'             
     e( 31 - 31) =     17.67766  eV     1   --> A''            
     e( 32 - 32) =     17.92149  eV     1   --> A'             
     e( 33 - 33) =     18.42254  eV     1   --> A''            
     e( 34 - 34) =     18.52694  eV     1   --> A'             
     e( 35 - 35) =     18.76618  eV     1   --> A''            
     e( 36 - 36) =     18.83836  eV     1   --> A'             

 **************************************************************************

     BANDS        :  45m17.71s CPU  53m43.13s WALL


   This run was terminated on:  23: 6:54  31Dec2020            

=------------------------------------------------------------------------------=
   JOB DONE.
=------------------------------------------------------------------------------=
