
     Program BANDS v.6.4.1 starts on 31Dec2020 at 23:14:50 

     This program is part of the open-source Quantum ESPRESSO suite
     for quantum simulation of materials; please cite
         "P. Giannozzi et al., J. Phys.:Condens. Matter 21 395502 (2009);
         "P. Giannozzi et al., J. Phys.:Condens. Matter 29 465901 (2017);
          URL http://www.quantum-espresso.org", 
     in publications or presentations arising from this work. More details at
     http://www.quantum-espresso.org/quote

     Parallel version (MPI), running on     4 processors

     MPI processes distributed on     1 nodes
     R & G space division:  proc/nbgrp/npool/nimage =       4

     Reading data from directory:
     ./Mn2CoGa.save/

     IMPORTANT: XC functional enforced from input :
     Exchange-correlation      = PBE ( 1  4  3  4 0 0)
     Any further DFT definition will be discarded
     Please, verify this is what you really want

               file Ga.pbe-dn-kjpaw_psl.1.0.0.UPF: wavefunction(s)  4S renormalized

     Parallelization info
     --------------------
     sticks:   dense  smooth     PW     G-vecs:    dense   smooth      PW
     Min        2067     826    228               124085    31361    4512
     Max        2068     828    229               124089    31362    4515
     Sum        8269    3307    913               496345   125445   18053

     Generating pointlists ...
     new r_m :   0.1786 (alat units)  1.9571 (a.u.) for type    1
     new r_m :   0.1786 (alat units)  1.9571 (a.u.) for type    2
     new r_m :   0.1786 (alat units)  1.9571 (a.u.) for type    3

     Check: negative core charge=   -0.000003
     high-symmetry point:  0.0000 0.5000 1.0000   x coordinate   0.0000
     high-symmetry point:  0.5000 0.5000 0.5000   x coordinate   0.7071
     high-symmetry point:  0.0000 0.0000 0.0000   x coordinate   1.5731
     high-symmetry point:  1.0000 0.0000 0.0000   x coordinate   2.5731
     high-symmetry point:  1.0000 0.5000 0.0000   x coordinate   3.0731
     high-symmetry point:  0.7500 0.7500 0.0000   x coordinate   3.4267

     Plottable bands (eV) written to file Mn2CoGa_down_bands.dat.gnu
     Bands written to file Mn2CoGa_down_bands.dat

 **************************************************************************

                    xk=(   0.00000,   0.50000,   1.00000  )

     point group S_4 (-4)   
     there are  4 classes
     the character table:

       E     S4^3  C2    S4   
A      1.00  1.00  1.00  1.00
B      1.00 -1.00  1.00 -1.00
E      1.00  0.00 -1.00  0.00
E*     1.00  0.00 -1.00  0.00
     imaginary part
A      0.00  0.00  0.00  0.00
B      0.00  0.00  0.00  0.00
E      0.00  1.00  0.00 -1.00
E*     0.00 -1.00  0.00  1.00

     the symmetry operations in each class and the name of the first element:

     E        1
                                                                 
     S4^3     3
                                                                 
     C2       2
                                                                 
     S4       4
                                                                 

     Band symmetry, S_4 (-4)    point group:

     e(  1 -  1) =    -78.45667  eV     1   --> B    W_3       
     e(  2 -  2) =    -63.77552  eV     1   --> E    W_4       
     e(  3 -  3) =    -61.12555  eV     1   --> A    W_1       
     e(  4 -  4) =    -41.73741  eV     1   --> E*   W_2       
     e(  5 -  5) =    -41.73718  eV     1   --> A    W_1       
     e(  6 -  6) =    -41.73662  eV     1   --> E    W_4       
     e(  7 -  7) =    -32.52036  eV     1   --> B    W_3       
     e(  8 -  8) =    -32.51889  eV     1   --> E*   W_2       
     e(  9 -  9) =    -32.51305  eV     1   --> A    W_1       
     e( 10 - 10) =    -29.93338  eV     1   --> E    W_4       
     e( 11 - 11) =    -29.92690  eV     1   --> E*   W_2       
     e( 12 - 12) =    -29.92609  eV     1   --> B    W_3       
     e( 13 - 13) =      2.51201  eV     1   --> B    W_3       
     e( 14 - 14) =      2.51606  eV     1   --> A    W_1       
     e( 15 - 15) =      2.53743  eV     1   --> E    W_4       
     e( 16 - 16) =      2.54120  eV     1   --> E    W_4       
     e( 17 - 17) =      2.56544  eV     1   --> E*   W_2       
     e( 18 - 18) =      9.78905  eV     1   --> E*   W_2       
     e( 19 - 19) =     12.14448  eV     1   --> B    W_3       
     e( 20 - 20) =     12.33830  eV     1   --> A    W_1       
     e( 21 - 21) =     13.18151  eV     1   --> E    W_4       
     e( 22 - 22) =     13.90741  eV     1   --> E    W_4       
     e( 23 - 23) =     14.29051  eV     1   --> E*   W_2       
     e( 24 - 24) =     14.30131  eV     1   --> B    W_3       
     e( 25 - 25) =     14.52938  eV     1   --> A    W_1       
     e( 26 - 26) =     15.21638  eV     1   --> A    W_1       
     e( 27 - 27) =     15.57268  eV     1   --> B    W_3       
     e( 28 - 28) =     15.65811  eV     1   --> E*   W_2       
     e( 29 - 29) =     15.94209  eV     1   --> E    W_4       
     e( 30 - 30) =     15.94670  eV     1   --> E*   W_2       
     e( 31 - 31) =     16.20124  eV     1   --> A    W_1       
     e( 32 - 32) =     17.22911  eV     1   --> E    W_4       
     e( 33 - 33) =     17.48791  eV     1   --> B    W_3       
     e( 34 - 34) =     17.90320  eV     1   --> E*   W_2       
     e( 35 - 35) =     18.01124  eV     1   --> A    W_1       
     e( 36 - 36) =     18.44342  eV     1   --> B    W_3       

 **************************************************************************

 **************************************************************************

                    xk=(   0.01667,   0.50000,   0.98333  )

     point group C_1 (1)    
     there are  1 classes
     the character table:

       E    
A      1.00

     the symmetry operations in each class and the name of the first element:

     E        1
                                                                 

     Band symmetry, C_1 (1)     point group:

     e(  1 -  1) =    -78.45667  eV     1   --> A              
     e(  2 -  2) =    -63.77552  eV     1   --> A              
     e(  3 -  3) =    -61.12555  eV     1   --> A              
     e(  4 -  4) =    -41.73741  eV     1   --> A              
     e(  5 -  5) =    -41.73717  eV     1   --> A              
     e(  6 -  6) =    -41.73662  eV     1   --> A              
     e(  7 -  7) =    -32.52036  eV     1   --> A              
     e(  8 -  8) =    -32.51888  eV     1   --> A              
     e(  9 -  9) =    -32.51306  eV     1   --> A              
     e( 10 - 10) =    -29.93337  eV     1   --> A              
     e( 11 - 11) =    -29.92690  eV     1   --> A              
     e( 12 - 12) =    -29.92610  eV     1   --> A              
     e( 13 - 13) =      2.51202  eV     1   --> A              
     e( 14 - 14) =      2.51606  eV     1   --> A              
     e( 15 - 15) =      2.53745  eV     1   --> A              
     e( 16 - 16) =      2.54120  eV     1   --> A              
     e( 17 - 17) =      2.56542  eV     1   --> A              
     e( 18 - 18) =      9.78695  eV     1   --> A              
     e( 19 - 19) =     12.14162  eV     1   --> A              
     e( 20 - 20) =     12.33563  eV     1   --> A              
     e( 21 - 21) =     13.18739  eV     1   --> A              
     e( 22 - 22) =     13.90355  eV     1   --> A              
     e( 23 - 23) =     14.27648  eV     1   --> A              
     e( 24 - 24) =     14.31841  eV     1   --> A              
     e( 25 - 25) =     14.52925  eV     1   --> A              
     e( 26 - 26) =     15.21389  eV     1   --> A              
     e( 27 - 27) =     15.56437  eV     1   --> A              
     e( 28 - 28) =     15.66818  eV     1   --> A              
     e( 29 - 29) =     15.94278  eV     1   --> A              
     e( 30 - 30) =     15.94916  eV     1   --> A              
     e( 31 - 31) =     16.20213  eV     1   --> A              
     e( 32 - 32) =     17.23046  eV     1   --> A              
     e( 33 - 33) =     17.48941  eV     1   --> A              
     e( 34 - 34) =     17.90136  eV     1   --> A              
     e( 35 - 35) =     18.01626  eV     1   --> A              
     e( 36 - 36) =     18.44678  eV     1   --> A              

 **************************************************************************

 **************************************************************************

                    xk=(   0.03333,   0.50000,   0.96667  )

     Band symmetry, C_1 (1)     point group:

     e(  1 -  1) =    -78.45667  eV     1   --> A              
     e(  2 -  2) =    -63.77552  eV     1   --> A              
     e(  3 -  3) =    -61.12555  eV     1   --> A              
     e(  4 -  4) =    -41.73741  eV     1   --> A              
     e(  5 -  5) =    -41.73717  eV     1   --> A              
     e(  6 -  6) =    -41.73662  eV     1   --> A              
     e(  7 -  7) =    -32.52036  eV     1   --> A              
     e(  8 -  8) =    -32.51885  eV     1   --> A              
     e(  9 -  9) =    -32.51307  eV     1   --> A              
     e( 10 - 10) =    -29.93336  eV     1   --> A              
     e( 11 - 11) =    -29.92690  eV     1   --> A              
     e( 12 - 12) =    -29.92611  eV     1   --> A              
     e( 13 - 13) =      2.51207  eV     1   --> A              
     e( 14 - 14) =      2.51609  eV     1   --> A              
     e( 15 - 15) =      2.53750  eV     1   --> A              
     e( 16 - 16) =      2.54120  eV     1   --> A              
     e( 17 - 17) =      2.56535  eV     1   --> A              
     e( 18 - 18) =      9.78069  eV     1   --> A              
     e( 19 - 19) =     12.13145  eV     1   --> A              
     e( 20 - 20) =     12.32993  eV     1   --> A              
     e( 21 - 21) =     13.20421  eV     1   --> A              
     e( 22 - 22) =     13.89243  eV     1   --> A              
     e( 23 - 23) =     14.26104  eV     1   --> A              
     e( 24 - 24) =     14.34247  eV     1   --> A              
     e( 25 - 25) =     14.52896  eV     1   --> A              
     e( 26 - 26) =     15.20657  eV     1   --> A              
     e( 27 - 27) =     15.54725  eV     1   --> A              
     e( 28 - 28) =     15.69046  eV     1   --> A              
     e( 29 - 29) =     15.93984  eV     1   --> A              
     e( 30 - 30) =     15.96150  eV     1   --> A              
     e( 31 - 31) =     16.20477  eV     1   --> A              
     e( 32 - 32) =     17.23450  eV     1   --> A              
     e( 33 - 33) =     17.49374  eV     1   --> A              
     e( 34 - 34) =     17.89647  eV     1   --> A              
     e( 35 - 35) =     18.03079  eV     1   --> A              
     e( 36 - 36) =     18.45691  eV     1   --> A              

 **************************************************************************

 **************************************************************************

                    xk=(   0.05000,   0.50000,   0.95000  )

     Band symmetry, C_1 (1)     point group:

     e(  1 -  1) =    -78.45667  eV     1   --> A              
     e(  2 -  2) =    -63.77552  eV     1   --> A              
     e(  3 -  3) =    -61.12554  eV     1   --> A              
     e(  4 -  4) =    -41.73740  eV     1   --> A              
     e(  5 -  5) =    -41.73716  eV     1   --> A              
     e(  6 -  6) =    -41.73662  eV     1   --> A              
     e(  7 -  7) =    -32.52037  eV     1   --> A              
     e(  8 -  8) =    -32.51881  eV     1   --> A              
     e(  9 -  9) =    -32.51309  eV     1   --> A              
     e( 10 - 10) =    -29.93333  eV     1   --> A              
     e( 11 - 11) =    -29.92691  eV     1   --> A              
     e( 12 - 12) =    -29.92613  eV     1   --> A              
     e( 13 - 13) =      2.51213  eV     1   --> A              
     e( 14 - 14) =      2.51614  eV     1   --> A              
     e( 15 - 15) =      2.53755  eV     1   --> A              
     e( 16 - 16) =      2.54122  eV     1   --> A              
     e( 17 - 17) =      2.56525  eV     1   --> A              
     e( 18 - 18) =      9.77043  eV     1   --> A              
     e( 19 - 19) =     12.11027  eV     1   --> A              
     e( 20 - 20) =     12.32684  eV     1   --> A              
     e( 21 - 21) =     13.22979  eV     1   --> A              
     e( 22 - 22) =     13.87530  eV     1   --> A              
     e( 23 - 23) =     14.24782  eV     1   --> A              
     e( 24 - 24) =     14.36824  eV     1   --> A              
     e( 25 - 25) =     14.52894  eV     1   --> A              
     e( 26 - 26) =     15.19490  eV     1   --> A              
     e( 27 - 27) =     15.52986  eV     1   --> A              
     e( 28 - 28) =     15.71614  eV     1   --> A              
     e( 29 - 29) =     15.93412  eV     1   --> A              
     e( 30 - 30) =     15.98270  eV     1   --> A              
     e( 31 - 31) =     16.20910  eV     1   --> A              
     e( 32 - 32) =     17.24118  eV     1   --> A              
     e( 33 - 33) =     17.50045  eV     1   --> A              
     e( 34 - 34) =     17.88974  eV     1   --> A              
     e( 35 - 35) =     18.05399  eV     1   --> A              
     e( 36 - 36) =     18.47403  eV     1   --> A              

 **************************************************************************

 **************************************************************************

                    xk=(   0.06667,   0.50000,   0.93333  )

     Band symmetry, C_1 (1)     point group:

     e(  1 -  1) =    -78.45667  eV     1   --> A              
     e(  2 -  2) =    -63.77552  eV     1   --> A              
     e(  3 -  3) =    -61.12554  eV     1   --> A              
     e(  4 -  4) =    -41.73740  eV     1   --> A              
     e(  5 -  5) =    -41.73716  eV     1   --> A              
     e(  6 -  6) =    -41.73662  eV     1   --> A              
     e(  7 -  7) =    -32.52037  eV     1   --> A              
     e(  8 -  8) =    -32.51876  eV     1   --> A              
     e(  9 -  9) =    -32.51312  eV     1   --> A              
     e( 10 - 10) =    -29.93330  eV     1   --> A              
     e( 11 - 11) =    -29.92692  eV     1   --> A              
     e( 12 - 12) =    -29.92615  eV     1   --> A              
     e( 13 - 13) =      2.51222  eV     1   --> A              
     e( 14 - 14) =      2.51621  eV     1   --> A              
     e( 15 - 15) =      2.53758  eV     1   --> A              
     e( 16 - 16) =      2.54130  eV     1   --> A              
     e( 17 - 17) =      2.56511  eV     1   --> A              
     e( 18 - 18) =      9.75642  eV     1   --> A              
     e( 19 - 19) =     12.07540  eV     1   --> A              
     e( 20 - 20) =     12.33146  eV     1   --> A              
     e( 21 - 21) =     13.26130  eV     1   --> A              
     e( 22 - 22) =     13.85384  eV     1   --> A              
     e( 23 - 23) =     14.23634  eV     1   --> A              
     e( 24 - 24) =     14.39352  eV     1   --> A              
     e( 25 - 25) =     14.53032  eV     1   --> A              
     e( 26 - 26) =     15.17976  eV     1   --> A              
     e( 27 - 27) =     15.51541  eV     1   --> A              
     e( 28 - 28) =     15.74164  eV     1   --> A              
     e( 29 - 29) =     15.92633  eV     1   --> A              
     e( 30 - 30) =     16.01148  eV     1   --> A              
     e( 31 - 31) =     16.21503  eV     1   --> A              
     e( 32 - 32) =     17.25039  eV     1   --> A              
     e( 33 - 33) =     17.50887  eV     1   --> A              
     e( 34 - 34) =     17.88207  eV     1   --> A              
     e( 35 - 35) =     18.08551  eV     1   --> A              
     e( 36 - 36) =     18.49844  eV     1   --> A              

 **************************************************************************

 **************************************************************************

                    xk=(   0.08333,   0.50000,   0.91667  )

     Band symmetry, C_1 (1)     point group:

     e(  1 -  1) =    -78.45667  eV     1   --> A              
     e(  2 -  2) =    -63.77553  eV     1   --> A              
     e(  3 -  3) =    -61.12554  eV     1   --> A              
     e(  4 -  4) =    -41.73740  eV     1   --> A              
     e(  5 -  5) =    -41.73715  eV     1   --> A              
     e(  6 -  6) =    -41.73663  eV     1   --> A              
     e(  7 -  7) =    -32.52037  eV     1   --> A              
     e(  8 -  8) =    -32.51870  eV     1   --> A              
     e(  9 -  9) =    -32.51315  eV     1   --> A              
     e( 10 - 10) =    -29.93326  eV     1   --> A              
     e( 11 - 11) =    -29.92693  eV     1   --> A              
     e( 12 - 12) =    -29.92619  eV     1   --> A              
     e( 13 - 13) =      2.51231  eV     1   --> A              
     e( 14 - 14) =      2.51631  eV     1   --> A              
     e( 15 - 15) =      2.53752  eV     1   --> A              
     e( 16 - 16) =      2.54149  eV     1   --> A              
     e( 17 - 17) =      2.56493  eV     1   --> A              
     e( 18 - 18) =      9.73899  eV     1   --> A              
     e( 19 - 19) =     12.02765  eV     1   --> A              
     e( 20 - 20) =     12.34531  eV     1   --> A              
     e( 21 - 21) =     13.29579  eV     1   --> A              
     e( 22 - 22) =     13.82993  eV     1   --> A              
     e( 23 - 23) =     14.22605  eV     1   --> A              
     e( 24 - 24) =     14.41485  eV     1   --> A              
     e( 25 - 25) =     14.53552  eV     1   --> A              
     e( 26 - 26) =     15.16230  eV     1   --> A              
     e( 27 - 27) =     15.50478  eV     1   --> A              
     e( 28 - 28) =     15.76575  eV     1   --> A              
     e( 29 - 29) =     15.91683  eV     1   --> A              
     e( 30 - 30) =     16.04652  eV     1   --> A              
     e( 31 - 31) =     16.22249  eV     1   --> A              
     e( 32 - 32) =     17.26193  eV     1   --> A              
     e( 33 - 33) =     17.51821  eV     1   --> A              
     e( 34 - 34) =     17.87390  eV     1   --> A              
     e( 35 - 35) =     18.12556  eV     1   --> A              
     e( 36 - 36) =     18.53055  eV     1   --> A              

 **************************************************************************

 **************************************************************************

                    xk=(   0.10000,   0.50000,   0.90000  )

     Band symmetry, C_1 (1)     point group:

     e(  1 -  1) =    -78.45667  eV     1   --> A              
     e(  2 -  2) =    -63.77553  eV     1   --> A              
     e(  3 -  3) =    -61.12553  eV     1   --> A              
     e(  4 -  4) =    -41.73740  eV     1   --> A              
     e(  5 -  5) =    -41.73714  eV     1   --> A              
     e(  6 -  6) =    -41.73663  eV     1   --> A              
     e(  7 -  7) =    -32.52036  eV     1   --> A              
     e(  8 -  8) =    -32.51862  eV     1   --> A              
     e(  9 -  9) =    -32.51320  eV     1   --> A              
     e( 10 - 10) =    -29.93321  eV     1   --> A              
     e( 11 - 11) =    -29.92694  eV     1   --> A              
     e( 12 - 12) =    -29.92623  eV     1   --> A              
     e( 13 - 13) =      2.51241  eV     1   --> A              
     e( 14 - 14) =      2.51644  eV     1   --> A              
     e( 15 - 15) =      2.53736  eV     1   --> A              
     e( 16 - 16) =      2.54181  eV     1   --> A              
     e( 17 - 17) =      2.56472  eV     1   --> A              
     e( 18 - 18) =      9.71853  eV     1   --> A              
     e( 19 - 19) =     11.97000  eV     1   --> A              
     e( 20 - 20) =     12.36728  eV     1   --> A              
     e( 21 - 21) =     13.33044  eV     1   --> A              
     e( 22 - 22) =     13.80557  eV     1   --> A              
     e( 23 - 23) =     14.21650  eV     1   --> A              
     e( 24 - 24) =     14.42781  eV     1   --> A              
     e( 25 - 25) =     14.54805  eV     1   --> A              
     e( 26 - 26) =     15.14382  eV     1   --> A              
     e( 27 - 27) =     15.49792  eV     1   --> A              
     e( 28 - 28) =     15.78815  eV     1   --> A              
     e( 29 - 29) =     15.90605  eV     1   --> A              
     e( 30 - 30) =     16.08624  eV     1   --> A              
     e( 31 - 31) =     16.23146  eV     1   --> A              
     e( 32 - 32) =     17.27551  eV     1   --> A              
     e( 33 - 33) =     17.52769  eV     1   --> A              
     e( 34 - 34) =     17.86539  eV     1   --> A              
     e( 35 - 35) =     18.17471  eV     1   --> A              
     e( 36 - 36) =     18.57080  eV     1   --> A              

 **************************************************************************

 **************************************************************************

                    xk=(   0.11667,   0.50000,   0.88333  )

     Band symmetry, C_1 (1)     point group:

     e(  1 -  1) =    -78.45667  eV     1   --> A              
     e(  2 -  2) =    -63.77553  eV     1   --> A              
     e(  3 -  3) =    -61.12552  eV     1   --> A              
     e(  4 -  4) =    -41.73739  eV     1   --> A              
     e(  5 -  5) =    -41.73713  eV     1   --> A              
     e(  6 -  6) =    -41.73663  eV     1   --> A              
     e(  7 -  7) =    -32.52035  eV     1   --> A              
     e(  8 -  8) =    -32.51854  eV     1   --> A              
     e(  9 -  9) =    -32.51326  eV     1   --> A              
     e( 10 - 10) =    -29.93316  eV     1   --> A              
     e( 11 - 11) =    -29.92696  eV     1   --> A              
     e( 12 - 12) =    -29.92628  eV     1   --> A              
     e( 13 - 13) =      2.51250  eV     1   --> A              
     e( 14 - 14) =      2.51661  eV     1   --> A              
     e( 15 - 15) =      2.53706  eV     1   --> A              
     e( 16 - 16) =      2.54229  eV     1   --> A              
     e( 17 - 17) =      2.56449  eV     1   --> A              
     e( 18 - 18) =      9.69546  eV     1   --> A              
     e( 19 - 19) =     11.90558  eV     1   --> A              
     e( 20 - 20) =     12.39565  eV     1   --> A              
     e( 21 - 21) =     13.36250  eV     1   --> A              
     e( 22 - 22) =     13.78290  eV     1   --> A              
     e( 23 - 23) =     14.20739  eV     1   --> A              
     e( 24 - 24) =     14.43000  eV     1   --> A              
     e( 25 - 25) =     14.56954  eV     1   --> A              
     e( 26 - 26) =     15.12550  eV     1   --> A              
     e( 27 - 27) =     15.49439  eV     1   --> A              
     e( 28 - 28) =     15.80864  eV     1   --> A              
     e( 29 - 29) =     15.89455  eV     1   --> A              
     e( 30 - 30) =     16.12906  eV     1   --> A              
     e( 31 - 31) =     16.24198  eV     1   --> A              
     e( 32 - 32) =     17.29075  eV     1   --> A              
     e( 33 - 33) =     17.53665  eV     1   --> A              
     e( 34 - 34) =     17.85656  eV     1   --> A              
     e( 35 - 35) =     18.23358  eV     1   --> A              
     e( 36 - 36) =     18.61962  eV     1   --> A              

 **************************************************************************

 **************************************************************************

                    xk=(   0.13333,   0.50000,   0.86667  )

     Band symmetry, C_1 (1)     point group:

     e(  1 -  1) =    -78.45667  eV     1   --> A              
     e(  2 -  2) =    -63.77554  eV     1   --> A              
     e(  3 -  3) =    -61.12552  eV     1   --> A              
     e(  4 -  4) =    -41.73739  eV     1   --> A              
     e(  5 -  5) =    -41.73712  eV     1   --> A              
     e(  6 -  6) =    -41.73664  eV     1   --> A              
     e(  7 -  7) =    -32.52033  eV     1   --> A              
     e(  8 -  8) =    -32.51846  eV     1   --> A              
     e(  9 -  9) =    -32.51332  eV     1   --> A              
     e( 10 - 10) =    -29.93309  eV     1   --> A              
     e( 11 - 11) =    -29.92698  eV     1   --> A              
     e( 12 - 12) =    -29.92633  eV     1   --> A              
     e( 13 - 13) =      2.51258  eV     1   --> A              
     e( 14 - 14) =      2.51684  eV     1   --> A              
     e( 15 - 15) =      2.53665  eV     1   --> A              
     e( 16 - 16) =      2.54290  eV     1   --> A              
     e( 17 - 17) =      2.56424  eV     1   --> A              
     e( 18 - 18) =      9.67021  eV     1   --> A              
     e( 19 - 19) =     11.83686  eV     1   --> A              
     e( 20 - 20) =     12.42896  eV     1   --> A              
     e( 21 - 21) =     13.38919  eV     1   --> A              
     e( 22 - 22) =     13.76438  eV     1   --> A              
     e( 23 - 23) =     14.19853  eV     1   --> A              
     e( 24 - 24) =     14.42299  eV     1   --> A              
     e( 25 - 25) =     14.59789  eV     1   --> A              
     e( 26 - 26) =     15.10829  eV     1   --> A              
     e( 27 - 27) =     15.49368  eV     1   --> A              
     e( 28 - 28) =     15.82642  eV     1   --> A              
     e( 29 - 29) =     15.88350  eV     1   --> A              
     e( 30 - 30) =     16.17356  eV     1   --> A              
     e( 31 - 31) =     16.25416  eV     1   --> A              
     e( 32 - 32) =     17.30719  eV     1   --> A              
     e( 33 - 33) =     17.54458  eV     1   --> A              
     e( 34 - 34) =     17.84739  eV     1   --> A              
     e( 35 - 35) =     18.30271  eV     1   --> A              
     e( 36 - 36) =     18.67743  eV     1   --> A              

 **************************************************************************

 **************************************************************************

                    xk=(   0.15000,   0.50000,   0.85000  )

     Band symmetry, C_1 (1)     point group:

     e(  1 -  1) =    -78.45667  eV     1   --> A              
     e(  2 -  2) =    -63.77555  eV     1   --> A              
     e(  3 -  3) =    -61.12551  eV     1   --> A              
     e(  4 -  4) =    -41.73738  eV     1   --> A              
     e(  5 -  5) =    -41.73711  eV     1   --> A              
     e(  6 -  6) =    -41.73664  eV     1   --> A              
     e(  7 -  7) =    -32.52030  eV     1   --> A              
     e(  8 -  8) =    -32.51837  eV     1   --> A              
     e(  9 -  9) =    -32.51339  eV     1   --> A              
     e( 10 - 10) =    -29.93302  eV     1   --> A              
     e( 11 - 11) =    -29.92700  eV     1   --> A              
     e( 12 - 12) =    -29.92639  eV     1   --> A              
     e( 13 - 13) =      2.51263  eV     1   --> A              
     e( 14 - 14) =      2.51711  eV     1   --> A              
     e( 15 - 15) =      2.53613  eV     1   --> A              
     e( 16 - 16) =      2.54363  eV     1   --> A              
     e( 17 - 17) =      2.56397  eV     1   --> A              
     e( 18 - 18) =      9.64325  eV     1   --> A              
     e( 19 - 19) =     11.76566  eV     1   --> A              
     e( 20 - 20) =     12.46603  eV     1   --> A              
     e( 21 - 21) =     13.40771  eV     1   --> A              
     e( 22 - 22) =     13.75264  eV     1   --> A              
     e( 23 - 23) =     14.18980  eV     1   --> A              
     e( 24 - 24) =     14.40949  eV     1   --> A              
     e( 25 - 25) =     14.63006  eV     1   --> A              
     e( 26 - 26) =     15.09281  eV     1   --> A              
     e( 27 - 27) =     15.49531  eV     1   --> A              
     e( 28 - 28) =     15.83800  eV     1   --> A              
     e( 29 - 29) =     15.87663  eV     1   --> A              
     e( 30 - 30) =     16.21847  eV     1   --> A              
     e( 31 - 31) =     16.26826  eV     1   --> A              
     e( 32 - 32) =     17.32433  eV     1   --> A              
     e( 33 - 33) =     17.55118  eV     1   --> A              
     e( 34 - 34) =     17.83786  eV     1   --> A              
     e( 35 - 35) =     18.38249  eV     1   --> A              
     e( 36 - 36) =     18.74455  eV     1   --> A              

 **************************************************************************

 **************************************************************************

                    xk=(   0.16667,   0.50000,   0.83333  )

     Band symmetry, C_1 (1)     point group:

     e(  1 -  1) =    -78.45667  eV     1   --> A              
     e(  2 -  2) =    -63.77555  eV     1   --> A              
     e(  3 -  3) =    -61.12550  eV     1   --> A              
     e(  4 -  4) =    -41.73738  eV     1   --> A              
     e(  5 -  5) =    -41.73709  eV     1   --> A              
     e(  6 -  6) =    -41.73665  eV     1   --> A              
     e(  7 -  7) =    -32.52026  eV     1   --> A              
     e(  8 -  8) =    -32.51828  eV     1   --> A              
     e(  9 -  9) =    -32.51347  eV     1   --> A              
     e( 10 - 10) =    -29.93295  eV     1   --> A              
     e( 11 - 11) =    -29.92702  eV     1   --> A              
     e( 12 - 12) =    -29.92646  eV     1   --> A              
     e( 13 - 13) =      2.51265  eV     1   --> A              
     e( 14 - 14) =      2.51742  eV     1   --> A              
     e( 15 - 15) =      2.53553  eV     1   --> A              
     e( 16 - 16) =      2.54446  eV     1   --> A              
     e( 17 - 17) =      2.56369  eV     1   --> A              
     e( 18 - 18) =      9.61500  eV     1   --> A              
     e( 19 - 19) =     11.69336  eV     1   --> A              
     e( 20 - 20) =     12.50588  eV     1   --> A              
     e( 21 - 21) =     13.41589  eV     1   --> A              
     e( 22 - 22) =     13.74983  eV     1   --> A              
     e( 23 - 23) =     14.18117  eV     1   --> A              
     e( 24 - 24) =     14.39147  eV     1   --> A              
     e( 25 - 25) =     14.66397  eV     1   --> A              
     e( 26 - 26) =     15.07936  eV     1   --> A              
     e( 27 - 27) =     15.49887  eV     1   --> A              
     e( 28 - 28) =     15.83653  eV     1   --> A              
     e( 29 - 29) =     15.88087  eV     1   --> A              
     e( 30 - 30) =     16.26213  eV     1   --> A              
     e( 31 - 31) =     16.28517  eV     1   --> A              
     e( 32 - 32) =     17.34173  eV     1   --> A              
     e( 33 - 33) =     17.55633  eV     1   --> A              
     e( 34 - 34) =     17.82795  eV     1   --> A              
     e( 35 - 35) =     18.47312  eV     1   --> A              
     e( 36 - 36) =     18.82119  eV     1   --> A              

 **************************************************************************

 **************************************************************************

                    xk=(   0.18333,   0.50000,   0.81667  )

     Band symmetry, C_1 (1)     point group:

     e(  1 -  1) =    -78.45667  eV     1   --> A              
     e(  2 -  2) =    -63.77556  eV     1   --> A              
     e(  3 -  3) =    -61.12549  eV     1   --> A              
     e(  4 -  4) =    -41.73737  eV     1   --> A              
     e(  5 -  5) =    -41.73708  eV     1   --> A              
     e(  6 -  6) =    -41.73665  eV     1   --> A              
     e(  7 -  7) =    -32.52021  eV     1   --> A              
     e(  8 -  8) =    -32.51819  eV     1   --> A              
     e(  9 -  9) =    -32.51357  eV     1   --> A              
     e( 10 - 10) =    -29.93286  eV     1   --> A              
     e( 11 - 11) =    -29.92705  eV     1   --> A              
     e( 12 - 12) =    -29.92652  eV     1   --> A              
     e( 13 - 13) =      2.51263  eV     1   --> A              
     e( 14 - 14) =      2.51779  eV     1   --> A              
     e( 15 - 15) =      2.53486  eV     1   --> A              
     e( 16 - 16) =      2.54538  eV     1   --> A              
     e( 17 - 17) =      2.56340  eV     1   --> A              
     e( 18 - 18) =      9.58589  eV     1   --> A              
     e( 19 - 19) =     11.62099  eV     1   --> A              
     e( 20 - 20) =     12.54771  eV     1   --> A              
     e( 21 - 21) =     13.41321  eV     1   --> A              
     e( 22 - 22) =     13.75655  eV     1   --> A              
     e( 23 - 23) =     14.17263  eV     1   --> A              
     e( 24 - 24) =     14.37026  eV     1   --> A              
     e( 25 - 25) =     14.69838  eV     1   --> A              
     e( 26 - 26) =     15.06800  eV     1   --> A              
     e( 27 - 27) =     15.50405  eV     1   --> A              
     e( 28 - 28) =     15.82571  eV     1   --> A              
     e( 29 - 29) =     15.89254  eV     1   --> A              
     e( 30 - 30) =     16.29632  eV     1   --> A              
     e( 31 - 31) =     16.31254  eV     1   --> A              
     e( 32 - 32) =     17.35896  eV     1   --> A              
     e( 33 - 33) =     17.56002  eV     1   --> A              
     e( 34 - 34) =     17.81769  eV     1   --> A              
     e( 35 - 35) =     18.57456  eV     1   --> A              
     e( 36 - 36) =     18.90748  eV     1   --> A              

 **************************************************************************

 **************************************************************************

                    xk=(   0.20000,   0.50000,   0.80000  )

     Band symmetry, C_1 (1)     point group:

     e(  1 -  1) =    -78.45667  eV     1   --> A              
     e(  2 -  2) =    -63.77557  eV     1   --> A              
     e(  3 -  3) =    -61.12549  eV     1   --> A              
     e(  4 -  4) =    -41.73736  eV     1   --> A              
     e(  5 -  5) =    -41.73707  eV     1   --> A              
     e(  6 -  6) =    -41.73666  eV     1   --> A              
     e(  7 -  7) =    -32.52014  eV     1   --> A              
     e(  8 -  8) =    -32.51810  eV     1   --> A              
     e(  9 -  9) =    -32.51367  eV     1   --> A              
     e( 10 - 10) =    -29.93278  eV     1   --> A              
     e( 11 - 11) =    -29.92708  eV     1   --> A              
     e( 12 - 12) =    -29.92660  eV     1   --> A              
     e( 13 - 13) =      2.51258  eV     1   --> A              
     e( 14 - 14) =      2.51820  eV     1   --> A              
     e( 15 - 15) =      2.53414  eV     1   --> A              
     e( 16 - 16) =      2.54636  eV     1   --> A              
     e( 17 - 17) =      2.56312  eV     1   --> A              
     e( 18 - 18) =      9.55630  eV     1   --> A              
     e( 19 - 19) =     11.54939  eV     1   --> A              
     e( 20 - 20) =     12.59079  eV     1   --> A              
     e( 21 - 21) =     13.40114  eV     1   --> A              
     e( 22 - 22) =     13.77148  eV     1   --> A              
     e( 23 - 23) =     14.16418  eV     1   --> A              
     e( 24 - 24) =     14.34680  eV     1   --> A              
     e( 25 - 25) =     14.73252  eV     1   --> A              
     e( 26 - 26) =     15.05860  eV     1   --> A              
     e( 27 - 27) =     15.51057  eV     1   --> A              
     e( 28 - 28) =     15.81199  eV     1   --> A              
     e( 29 - 29) =     15.90520  eV     1   --> A              
     e( 30 - 30) =     16.31841  eV     1   --> A              
     e( 31 - 31) =     16.35256  eV     1   --> A              
     e( 32 - 32) =     17.37570  eV     1   --> A              
     e( 33 - 33) =     17.56236  eV     1   --> A              
     e( 34 - 34) =     17.80711  eV     1   --> A              
     e( 35 - 35) =     18.68659  eV     1   --> A              
     e( 36 - 36) =     19.00345  eV     1   --> A              

 **************************************************************************

 **************************************************************************

                    xk=(   0.21667,   0.50000,   0.78333  )

     Band symmetry, C_1 (1)     point group:

     e(  1 -  1) =    -78.45667  eV     1   --> A              
     e(  2 -  2) =    -63.77557  eV     1   --> A              
     e(  3 -  3) =    -61.12548  eV     1   --> A              
     e(  4 -  4) =    -41.73735  eV     1   --> A              
     e(  5 -  5) =    -41.73706  eV     1   --> A              
     e(  6 -  6) =    -41.73667  eV     1   --> A              
     e(  7 -  7) =    -32.52007  eV     1   --> A              
     e(  8 -  8) =    -32.51801  eV     1   --> A              
     e(  9 -  9) =    -32.51378  eV     1   --> A              
     e( 10 - 10) =    -29.93269  eV     1   --> A              
     e( 11 - 11) =    -29.92711  eV     1   --> A              
     e( 12 - 12) =    -29.92667  eV     1   --> A              
     e( 13 - 13) =      2.51250  eV     1   --> A              
     e( 14 - 14) =      2.51864  eV     1   --> A              
     e( 15 - 15) =      2.53338  eV     1   --> A              
     e( 16 - 16) =      2.54738  eV     1   --> A              
     e( 17 - 17) =      2.56283  eV     1   --> A              
     e( 18 - 18) =      9.52660  eV     1   --> A              
     e( 19 - 19) =     11.47921  eV     1   --> A              
     e( 20 - 20) =     12.63446  eV     1   --> A              
     e( 21 - 21) =     13.38223  eV     1   --> A              
     e( 22 - 22) =     13.79226  eV     1   --> A              
     e( 23 - 23) =     14.15586  eV     1   --> A              
     e( 24 - 24) =     14.32189  eV     1   --> A              
     e( 25 - 25) =     14.76585  eV     1   --> A              
     e( 26 - 26) =     15.05091  eV     1   --> A              
     e( 27 - 27) =     15.51824  eV     1   --> A              
     e( 28 - 28) =     15.79743  eV     1   --> A              
     e( 29 - 29) =     15.91680  eV     1   --> A              
     e( 30 - 30) =     16.34061  eV     1   --> A              
     e( 31 - 31) =     16.39263  eV     1   --> A              
     e( 32 - 32) =     17.39172  eV     1   --> A              
     e( 33 - 33) =     17.56349  eV     1   --> A              
     e( 34 - 34) =     17.79627  eV     1   --> A              
     e( 35 - 35) =     18.80879  eV     1   --> A              
     e( 36 - 36) =     19.10905  eV     1   --> A              

 **************************************************************************

 **************************************************************************

                    xk=(   0.23333,   0.50000,   0.76667  )

     Band symmetry, C_1 (1)     point group:

     e(  1 -  1) =    -78.45667  eV     1   --> A              
     e(  2 -  2) =    -63.77558  eV     1   --> A              
     e(  3 -  3) =    -61.12547  eV     1   --> A              
     e(  4 -  4) =    -41.73733  eV     1   --> A              
     e(  5 -  5) =    -41.73704  eV     1   --> A              
     e(  6 -  6) =    -41.73668  eV     1   --> A              
     e(  7 -  7) =    -32.51997  eV     1   --> A              
     e(  8 -  8) =    -32.51793  eV     1   --> A              
     e(  9 -  9) =    -32.51390  eV     1   --> A              
     e( 10 - 10) =    -29.93259  eV     1   --> A              
     e( 11 - 11) =    -29.92714  eV     1   --> A              
     e( 12 - 12) =    -29.92675  eV     1   --> A              
     e( 13 - 13) =      2.51239  eV     1   --> A              
     e( 14 - 14) =      2.51911  eV     1   --> A              
     e( 15 - 15) =      2.53259  eV     1   --> A              
     e( 16 - 16) =      2.54844  eV     1   --> A              
     e( 17 - 17) =      2.56256  eV     1   --> A              
     e( 18 - 18) =      9.49713  eV     1   --> A              
     e( 19 - 19) =     11.41101  eV     1   --> A              
     e( 20 - 20) =     12.67813  eV     1   --> A              
     e( 21 - 21) =     13.35896  eV     1   --> A              
     e( 22 - 22) =     13.81662  eV     1   --> A              
     e( 23 - 23) =     14.14769  eV     1   --> A              
     e( 24 - 24) =     14.29624  eV     1   --> A              
     e( 25 - 25) =     14.79796  eV     1   --> A              
     e( 26 - 26) =     15.04466  eV     1   --> A              
     e( 27 - 27) =     15.52686  eV     1   --> A              
     e( 28 - 28) =     15.78274  eV     1   --> A              
     e( 29 - 29) =     15.92673  eV     1   --> A              
     e( 30 - 30) =     16.36448  eV     1   --> A              
     e( 31 - 31) =     16.43080  eV     1   --> A              
     e( 32 - 32) =     17.40689  eV     1   --> A              
     e( 33 - 33) =     17.56358  eV     1   --> A              
     e( 34 - 34) =     17.78527  eV     1   --> A              
     e( 35 - 35) =     18.94060  eV     1   --> A              
     e( 36 - 36) =     19.22420  eV     1   --> A              

 **************************************************************************

 **************************************************************************

                    xk=(   0.25000,   0.50000,   0.75000  )

     Band symmetry, C_1 (1)     point group:

     e(  1 -  1) =    -78.45667  eV     1   --> A              
     e(  2 -  2) =    -63.77559  eV     1   --> A              
     e(  3 -  3) =    -61.12546  eV     1   --> A              
     e(  4 -  4) =    -41.73732  eV     1   --> A              
     e(  5 -  5) =    -41.73703  eV     1   --> A              
     e(  6 -  6) =    -41.73669  eV     1   --> A              
     e(  7 -  7) =    -32.51987  eV     1   --> A              
     e(  8 -  8) =    -32.51785  eV     1   --> A              
     e(  9 -  9) =    -32.51403  eV     1   --> A              
     e( 10 - 10) =    -29.93250  eV     1   --> A              
     e( 11 - 11) =    -29.92717  eV     1   --> A              
     e( 12 - 12) =    -29.92682  eV     1   --> A              
     e( 13 - 13) =      2.51225  eV     1   --> A              
     e( 14 - 14) =      2.51961  eV     1   --> A              
     e( 15 - 15) =      2.53179  eV     1   --> A              
     e( 16 - 16) =      2.54953  eV     1   --> A              
     e( 17 - 17) =      2.56229  eV     1   --> A              
     e( 18 - 18) =      9.46819  eV     1   --> A              
     e( 19 - 19) =     11.34526  eV     1   --> A              
     e( 20 - 20) =     12.72126  eV     1   --> A              
     e( 21 - 21) =     13.33325  eV     1   --> A              
     e( 22 - 22) =     13.84281  eV     1   --> A              
     e( 23 - 23) =     14.13974  eV     1   --> A              
     e( 24 - 24) =     14.27044  eV     1   --> A              
     e( 25 - 25) =     14.82854  eV     1   --> A              
     e( 26 - 26) =     15.03958  eV     1   --> A              
     e( 27 - 27) =     15.53629  eV     1   --> A              
     e( 28 - 28) =     15.76827  eV     1   --> A              
     e( 29 - 29) =     15.93479  eV     1   --> A              
     e( 30 - 30) =     16.39005  eV     1   --> A              
     e( 31 - 31) =     16.46662  eV     1   --> A              
     e( 32 - 32) =     17.42114  eV     1   --> A              
     e( 33 - 33) =     17.56282  eV     1   --> A              
     e( 34 - 34) =     17.77421  eV     1   --> A              
     e( 35 - 35) =     19.08128  eV     1   --> A              
     e( 36 - 36) =     19.34877  eV     1   --> A              

 **************************************************************************

 **************************************************************************

                    xk=(   0.26667,   0.50000,   0.73333  )

     Band symmetry, C_1 (1)     point group:

     e(  1 -  1) =    -78.45667  eV     1   --> A              
     e(  2 -  2) =    -63.77560  eV     1   --> A              
     e(  3 -  3) =    -61.12545  eV     1   --> A              
     e(  4 -  4) =    -41.73730  eV     1   --> A              
     e(  5 -  5) =    -41.73702  eV     1   --> A              
     e(  6 -  6) =    -41.73670  eV     1   --> A              
     e(  7 -  7) =    -32.51975  eV     1   --> A              
     e(  8 -  8) =    -32.51777  eV     1   --> A              
     e(  9 -  9) =    -32.51417  eV     1   --> A              
     e( 10 - 10) =    -29.93240  eV     1   --> A              
     e( 11 - 11) =    -29.92720  eV     1   --> A              
     e( 12 - 12) =    -29.92690  eV     1   --> A              
     e( 13 - 13) =      2.51207  eV     1   --> A              
     e( 14 - 14) =      2.52011  eV     1   --> A              
     e( 15 - 15) =      2.53099  eV     1   --> A              
     e( 16 - 16) =      2.55062  eV     1   --> A              
     e( 17 - 17) =      2.56203  eV     1   --> A              
     e( 18 - 18) =      9.44005  eV     1   --> A              
     e( 19 - 19) =     11.28233  eV     1   --> A              
     e( 20 - 20) =     12.76337  eV     1   --> A              
     e( 21 - 21) =     13.30648  eV     1   --> A              
     e( 22 - 22) =     13.86965  eV     1   --> A              
     e( 23 - 23) =     14.13204  eV     1   --> A              
     e( 24 - 24) =     14.24501  eV     1   --> A              
     e( 25 - 25) =     14.85730  eV     1   --> A              
     e( 26 - 26) =     15.03541  eV     1   --> A              
     e( 27 - 27) =     15.54638  eV     1   --> A              
     e( 28 - 28) =     15.75430  eV     1   --> A              
     e( 29 - 29) =     15.94097  eV     1   --> A              
     e( 30 - 30) =     16.41709  eV     1   --> A              
     e( 31 - 31) =     16.49989  eV     1   --> A              
     e( 32 - 32) =     17.43448  eV     1   --> A              
     e( 33 - 33) =     17.56137  eV     1   --> A              
     e( 34 - 34) =     17.76321  eV     1   --> A              
     e( 35 - 35) =     19.23003  eV     1   --> A              
     e( 36 - 36) =     19.48262  eV     1   --> A              

 **************************************************************************

 **************************************************************************

                    xk=(   0.28333,   0.50000,   0.71667  )

     Band symmetry, C_1 (1)     point group:

     e(  1 -  1) =    -78.45667  eV     1   --> A              
     e(  2 -  2) =    -63.77561  eV     1   --> A              
     e(  3 -  3) =    -61.12544  eV     1   --> A              
     e(  4 -  4) =    -41.73728  eV     1   --> A              
     e(  5 -  5) =    -41.73701  eV     1   --> A              
     e(  6 -  6) =    -41.73671  eV     1   --> A              
     e(  7 -  7) =    -32.51962  eV     1   --> A              
     e(  8 -  8) =    -32.51770  eV     1   --> A              
     e(  9 -  9) =    -32.51432  eV     1   --> A              
     e( 10 - 10) =    -29.93230  eV     1   --> A              
     e( 11 - 11) =    -29.92724  eV     1   --> A              
     e( 12 - 12) =    -29.92698  eV     1   --> A              
     e( 13 - 13) =      2.51188  eV     1   --> A              
     e( 14 - 14) =      2.52061  eV     1   --> A              
     e( 15 - 15) =      2.53021  eV     1   --> A              
     e( 16 - 16) =      2.55171  eV     1   --> A              
     e( 17 - 17) =      2.56179  eV     1   --> A              
     e( 18 - 18) =      9.41295  eV     1   --> A              
     e( 19 - 19) =     11.22257  eV     1   --> A              
     e( 20 - 20) =     12.80400  eV     1   --> A              
     e( 21 - 21) =     13.27958  eV     1   --> A              
     e( 22 - 22) =     13.89636  eV     1   --> A              
     e( 23 - 23) =     14.12464  eV     1   --> A              
     e( 24 - 24) =     14.22042  eV     1   --> A              
     e( 25 - 25) =     14.88400  eV     1   --> A              
     e( 26 - 26) =     15.03196  eV     1   --> A              
     e( 27 - 27) =     15.55699  eV     1   --> A              
     e( 28 - 28) =     15.74101  eV     1   --> A              
     e( 29 - 29) =     15.94534  eV     1   --> A              
     e( 30 - 30) =     16.44524  eV     1   --> A              
     e( 31 - 31) =     16.53047  eV     1   --> A              
     e( 32 - 32) =     17.44691  eV     1   --> A              
     e( 33 - 33) =     17.55938  eV     1   --> A              
     e( 34 - 34) =     17.75240  eV     1   --> A              
     e( 35 - 35) =     19.38597  eV     1   --> A              
     e( 36 - 36) =     19.62555  eV     1   --> A              

 **************************************************************************

 **************************************************************************

                    xk=(   0.30000,   0.50000,   0.70000  )

     Band symmetry, C_1 (1)     point group:

     e(  1 -  1) =    -78.45667  eV     1   --> A              
     e(  2 -  2) =    -63.77561  eV     1   --> A              
     e(  3 -  3) =    -61.12543  eV     1   --> A              
     e(  4 -  4) =    -41.73726  eV     1   --> A              
     e(  5 -  5) =    -41.73700  eV     1   --> A              
     e(  6 -  6) =    -41.73673  eV     1   --> A              
     e(  7 -  7) =    -32.51947  eV     1   --> A              
     e(  8 -  8) =    -32.51763  eV     1   --> A              
     e(  9 -  9) =    -32.51448  eV     1   --> A              
     e( 10 - 10) =    -29.93220  eV     1   --> A              
     e( 11 - 11) =    -29.92728  eV     1   --> A              
     e( 12 - 12) =    -29.92705  eV     1   --> A              
     e( 13 - 13) =      2.51166  eV     1   --> A              
     e( 14 - 14) =      2.52112  eV     1   --> A              
     e( 15 - 15) =      2.52944  eV     1   --> A              
     e( 16 - 16) =      2.55277  eV     1   --> A              
     e( 17 - 17) =      2.56156  eV     1   --> A              
     e( 18 - 18) =      9.38712  eV     1   --> A              
     e( 19 - 19) =     11.16627  eV     1   --> A              
     e( 20 - 20) =     12.84276  eV     1   --> A              
     e( 21 - 21) =     13.25323  eV     1   --> A              
     e( 22 - 22) =     13.92236  eV     1   --> A              
     e( 23 - 23) =     14.11761  eV     1   --> A              
     e( 24 - 24) =     14.19705  eV     1   --> A              
     e( 25 - 25) =     14.90843  eV     1   --> A              
     e( 26 - 26) =     15.02906  eV     1   --> A              
     e( 27 - 27) =     15.56798  eV     1   --> A              
     e( 28 - 28) =     15.72860  eV     1   --> A              
     e( 29 - 29) =     15.94806  eV     1   --> A              
     e( 30 - 30) =     16.47408  eV     1   --> A              
     e( 31 - 31) =     16.55831  eV     1   --> A              
     e( 32 - 32) =     17.45849  eV     1   --> A              
     e( 33 - 33) =     17.55700  eV     1   --> A              
     e( 34 - 34) =     17.74192  eV     1   --> A              
     e( 35 - 35) =     19.54824  eV     1   --> A              
     e( 36 - 36) =     19.77729  eV     1   --> A              

 **************************************************************************

 **************************************************************************

                    xk=(   0.31667,   0.50000,   0.68333  )

     Band symmetry, C_1 (1)     point group:

     e(  1 -  1) =    -78.45667  eV     1   --> A              
     e(  2 -  2) =    -63.77562  eV     1   --> A              
     e(  3 -  3) =    -61.12542  eV     1   --> A              
     e(  4 -  4) =    -41.73724  eV     1   --> A              
     e(  5 -  5) =    -41.73699  eV     1   --> A              
     e(  6 -  6) =    -41.73674  eV     1   --> A              
     e(  7 -  7) =    -32.51931  eV     1   --> A              
     e(  8 -  8) =    -32.51756  eV     1   --> A              
     e(  9 -  9) =    -32.51465  eV     1   --> A              
     e( 10 - 10) =    -29.93211  eV     1   --> A              
     e( 11 - 11) =    -29.92731  eV     1   --> A              
     e( 12 - 12) =    -29.92712  eV     1   --> A              
     e( 13 - 13) =      2.51142  eV     1   --> A              
     e( 14 - 14) =      2.52161  eV     1   --> A              
     e( 15 - 15) =      2.52872  eV     1   --> A              
     e( 16 - 16) =      2.55381  eV     1   --> A              
     e( 17 - 17) =      2.56134  eV     1   --> A              
     e( 18 - 18) =      9.36274  eV     1   --> A              
     e( 19 - 19) =     11.11367  eV     1   --> A              
     e( 20 - 20) =     12.87931  eV     1   --> A              
     e( 21 - 21) =     13.22790  eV     1   --> A              
     e( 22 - 22) =     13.94724  eV     1   --> A              
     e( 23 - 23) =     14.11099  eV     1   --> A              
     e( 24 - 24) =     14.17522  eV     1   --> A              
     e( 25 - 25) =     14.93045  eV     1   --> A              
     e( 26 - 26) =     15.02663  eV     1   --> A              
     e( 27 - 27) =     15.57922  eV     1   --> A              
     e( 28 - 28) =     15.71720  eV     1   --> A              
     e( 29 - 29) =     15.94931  eV     1   --> A              
     e( 30 - 30) =     16.50313  eV     1   --> A              
     e( 31 - 31) =     16.58339  eV     1   --> A              
     e( 32 - 32) =     17.46925  eV     1   --> A              
     e( 33 - 33) =     17.55435  eV     1   --> A              
     e( 34 - 34) =     17.73190  eV     1   --> A              
     e( 35 - 35) =     19.71606  eV     1   --> A              
     e( 36 - 36) =     19.93739  eV     1   --> A              

 **************************************************************************

 **************************************************************************

                    xk=(   0.33333,   0.50000,   0.66667  )

     Band symmetry, C_1 (1)     point group:

     e(  1 -  1) =    -78.45667  eV     1   --> A              
     e(  2 -  2) =    -63.77563  eV     1   --> A              
     e(  3 -  3) =    -61.12541  eV     1   --> A              
     e(  4 -  4) =    -41.73722  eV     1   --> A              
     e(  5 -  5) =    -41.73698  eV     1   --> A              
     e(  6 -  6) =    -41.73676  eV     1   --> A              
     e(  7 -  7) =    -32.51914  eV     1   --> A              
     e(  8 -  8) =    -32.51750  eV     1   --> A              
     e(  9 -  9) =    -32.51483  eV     1   --> A              
     e( 10 - 10) =    -29.93201  eV     1   --> A              
     e( 11 - 11) =    -29.92735  eV     1   --> A              
     e( 12 - 12) =    -29.92719  eV     1   --> A              
     e( 13 - 13) =      2.51118  eV     1   --> A              
     e( 14 - 14) =      2.52208  eV     1   --> A              
     e( 15 - 15) =      2.52804  eV     1   --> A              
     e( 16 - 16) =      2.55481  eV     1   --> A              
     e( 17 - 17) =      2.56115  eV     1   --> A              
     e( 18 - 18) =      9.33998  eV     1   --> A              
     e( 19 - 19) =     11.06500  eV     1   --> A              
     e( 20 - 20) =     12.91335  eV     1   --> A              
     e( 21 - 21) =     13.20395  eV     1   --> A              
     e( 22 - 22) =     13.97065  eV     1   --> A              
     e( 23 - 23) =     14.10487  eV     1   --> A              
     e( 24 - 24) =     14.15520  eV     1   --> A              
     e( 25 - 25) =     14.94991  eV     1   --> A              
     e( 26 - 26) =     15.02458  eV     1   --> A              
     e( 27 - 27) =     15.59054  eV     1   --> A              
     e( 28 - 28) =     15.70693  eV     1   --> A              
     e( 29 - 29) =     15.94930  eV     1   --> A              
     e( 30 - 30) =     16.53189  eV     1   --> A              
     e( 31 - 31) =     16.60573  eV     1   --> A              
     e( 32 - 32) =     17.47924  eV     1   --> A              
     e( 33 - 33) =     17.55153  eV     1   --> A              
     e( 34 - 34) =     17.72247  eV     1   --> A              
     e( 35 - 35) =     19.88877  eV     1   --> A              
     e( 36 - 36) =     20.10520  eV     1   --> A              

 **************************************************************************

 **************************************************************************

                    xk=(   0.35000,   0.50000,   0.65000  )

     Band symmetry, C_1 (1)     point group:

     e(  1 -  1) =    -78.45667  eV     1   --> A              
     e(  2 -  2) =    -63.77563  eV     1   --> A              
     e(  3 -  3) =    -61.12541  eV     1   --> A              
     e(  4 -  4) =    -41.73720  eV     1   --> A              
     e(  5 -  5) =    -41.73697  eV     1   --> A              
     e(  6 -  6) =    -41.73677  eV     1   --> A              
     e(  7 -  7) =    -32.51896  eV     1   --> A              
     e(  8 -  8) =    -32.51745  eV     1   --> A              
     e(  9 -  9) =    -32.51501  eV     1   --> A              
     e( 10 - 10) =    -29.93193  eV     1   --> A              
     e( 11 - 11) =    -29.92738  eV     1   --> A              
     e( 12 - 12) =    -29.92726  eV     1   --> A              
     e( 13 - 13) =      2.51092  eV     1   --> A              
     e( 14 - 14) =      2.52253  eV     1   --> A              
     e( 15 - 15) =      2.52741  eV     1   --> A              
     e( 16 - 16) =      2.55575  eV     1   --> A              
     e( 17 - 17) =      2.56097  eV     1   --> A              
     e( 18 - 18) =      9.31899  eV     1   --> A              
     e( 19 - 19) =     11.02044  eV     1   --> A              
     e( 20 - 20) =     12.94462  eV     1   --> A              
     e( 21 - 21) =     13.18167  eV     1   --> A              
     e( 22 - 22) =     13.99224  eV     1   --> A              
     e( 23 - 23) =     14.09928  eV     1   --> A              
     e( 24 - 24) =     14.13725  eV     1   --> A              
     e( 25 - 25) =     14.96676  eV     1   --> A              
     e( 26 - 26) =     15.02288  eV     1   --> A              
     e( 27 - 27) =     15.60180  eV     1   --> A              
     e( 28 - 28) =     15.69787  eV     1   --> A              
     e( 29 - 29) =     15.94823  eV     1   --> A              
     e( 30 - 30) =     16.55984  eV     1   --> A              
     e( 31 - 31) =     16.62541  eV     1   --> A              
     e( 32 - 32) =     17.48845  eV     1   --> A              
     e( 33 - 33) =     17.54863  eV     1   --> A              
     e( 34 - 34) =     17.71375  eV     1   --> A              
     e( 35 - 35) =     20.06590  eV     1   --> A              
     e( 36 - 36) =     20.27975  eV     1   --> A              

 **************************************************************************

 **************************************************************************

                    xk=(   0.36667,   0.50000,   0.63333  )

     Band symmetry, C_1 (1)     point group:

     e(  1 -  1) =    -78.45667  eV     1   --> A              
     e(  2 -  2) =    -63.77564  eV     1   --> A              
     e(  3 -  3) =    -61.12540  eV     1   --> A              
     e(  4 -  4) =    -41.73718  eV     1   --> A              
     e(  5 -  5) =    -41.73697  eV     1   --> A              
     e(  6 -  6) =    -41.73679  eV     1   --> A              
     e(  7 -  7) =    -32.51877  eV     1   --> A              
     e(  8 -  8) =    -32.51740  eV     1   --> A              
     e(  9 -  9) =    -32.51521  eV     1   --> A              
     e( 10 - 10) =    -29.93184  eV     1   --> A              
     e( 11 - 12) =    -29.92742  eV     2   -->   2 A              
     e( 13 - 13) =      2.51066  eV     1   --> A              
     e( 14 - 14) =      2.52294  eV     1   --> A              
     e( 15 - 15) =      2.52684  eV     1   --> A              
     e( 16 - 16) =      2.55662  eV     1   --> A              
     e( 17 - 17) =      2.56081  eV     1   --> A              
     e( 18 - 18) =      9.29989  eV     1   --> A              
     e( 19 - 19) =     10.98017  eV     1   --> A              
     e( 20 - 20) =     12.97292  eV     1   --> A              
     e( 21 - 21) =     13.16127  eV     1   --> A              
     e( 22 - 22) =     14.01159  eV     1   --> A              
     e( 23 - 23) =     14.09426  eV     1   --> A              
     e( 24 - 24) =     14.12173  eV     1   --> A              
     e( 25 - 25) =     14.98100  eV     1   --> A              
     e( 26 - 26) =     15.02154  eV     1   --> A              
     e( 27 - 27) =     15.61281  eV     1   --> A              
     e( 28 - 28) =     15.69007  eV     1   --> A              
     e( 29 - 29) =     15.94632  eV     1   --> A              
     e( 30 - 30) =     16.58647  eV     1   --> A              
     e( 31 - 31) =     16.64252  eV     1   --> A              
     e( 32 - 32) =     17.49691  eV     1   --> A              
     e( 33 - 33) =     17.54575  eV     1   --> A              
     e( 34 - 34) =     17.70583  eV     1   --> A              
     e( 35 - 35) =     20.24710  eV     1   --> A              
     e( 36 - 36) =     20.45972  eV     1   --> A              

 **************************************************************************

 **************************************************************************

                    xk=(   0.38333,   0.50000,   0.61667  )

     Band symmetry, C_1 (1)     point group:

     e(  1 -  1) =    -78.45667  eV     1   --> A              
     e(  2 -  2) =    -63.77565  eV     1   --> A              
     e(  3 -  3) =    -61.12539  eV     1   --> A              
     e(  4 -  4) =    -41.73715  eV     1   --> A              
     e(  5 -  5) =    -41.73696  eV     1   --> A              
     e(  6 -  6) =    -41.73681  eV     1   --> A              
     e(  7 -  7) =    -32.51857  eV     1   --> A              
     e(  8 -  8) =    -32.51736  eV     1   --> A              
     e(  9 -  9) =    -32.51541  eV     1   --> A              
     e( 10 - 10) =    -29.93176  eV     1   --> A              
     e( 11 - 12) =    -29.92745  eV     2   -->   2 A              
     e( 13 - 13) =      2.51041  eV     1   --> A              
     e( 14 - 14) =      2.52332  eV     1   --> A              
     e( 15 - 15) =      2.52633  eV     1   --> A              
     e( 16 - 16) =      2.55742  eV     1   --> A              
     e( 17 - 17) =      2.56067  eV     1   --> A              
     e( 18 - 18) =      9.28280  eV     1   --> A              
     e( 19 - 19) =     10.94432  eV     1   --> A              
     e( 20 - 20) =     12.99809  eV     1   --> A              
     e( 21 - 21) =     13.14293  eV     1   --> A              
     e( 22 - 22) =     14.02819  eV     1   --> A              
     e( 23 - 23) =     14.08952  eV     1   --> A              
     e( 24 - 24) =     14.10934  eV     1   --> A              
     e( 25 - 25) =     14.99268  eV     1   --> A              
     e( 26 - 26) =     15.02054  eV     1   --> A              
     e( 27 - 27) =     15.62339  eV     1   --> A              
     e( 28 - 28) =     15.68352  eV     1   --> A              
     e( 29 - 29) =     15.94380  eV     1   --> A              
     e( 30 - 30) =     16.61129  eV     1   --> A              
     e( 31 - 31) =     16.65716  eV     1   --> A              
     e( 32 - 32) =     17.50458  eV     1   --> A              
     e( 33 - 33) =     17.54294  eV     1   --> A              
     e( 34 - 34) =     17.69879  eV     1   --> A              
     e( 35 - 35) =     20.43208  eV     1   --> A              
     e( 36 - 36) =     20.64345  eV     1   --> A              

 **************************************************************************

 **************************************************************************

                    xk=(   0.40000,   0.50000,   0.60000  )

     Band symmetry, C_1 (1)     point group:

     e(  1 -  1) =    -78.45668  eV     1   --> A              
     e(  2 -  2) =    -63.77565  eV     1   --> A              
     e(  3 -  3) =    -61.12539  eV     1   --> A              
     e(  4 -  4) =    -41.73713  eV     1   --> A              
     e(  5 -  5) =    -41.73695  eV     1   --> A              
     e(  6 -  6) =    -41.73683  eV     1   --> A              
     e(  7 -  7) =    -32.51837  eV     1   --> A              
     e(  8 -  8) =    -32.51732  eV     1   --> A              
     e(  9 -  9) =    -32.51561  eV     1   --> A              
     e( 10 - 10) =    -29.93169  eV     1   --> A              
     e( 11 - 12) =    -29.92748  eV     2   -->   2 A              
     e( 13 - 13) =      2.51017  eV     1   --> A              
     e( 14 - 14) =      2.52367  eV     1   --> A              
     e( 15 - 15) =      2.52588  eV     1   --> A              
     e( 16 - 16) =      2.55813  eV     1   --> A              
     e( 17 - 17) =      2.56054  eV     1   --> A              
     e( 18 - 18) =      9.26782  eV     1   --> A              
     e( 19 - 19) =     10.91301  eV     1   --> A              
     e( 20 - 20) =     13.02002  eV     1   --> A              
     e( 21 - 21) =     13.12678  eV     1   --> A              
     e( 22 - 22) =     14.04130  eV     1   --> A              
     e( 23 - 23) =     14.08408  eV     1   --> A              
     e( 24 - 24) =     14.10168  eV     1   --> A              
     e( 25 - 25) =     15.00194  eV     1   --> A              
     e( 26 - 26) =     15.01990  eV     1   --> A              
     e( 27 - 27) =     15.63331  eV     1   --> A              
     e( 28 - 28) =     15.67816  eV     1   --> A              
     e( 29 - 29) =     15.94089  eV     1   --> A              
     e( 30 - 30) =     16.63384  eV     1   --> A              
     e( 31 - 31) =     16.66947  eV     1   --> A              
     e( 32 - 32) =     17.51142  eV     1   --> A              
     e( 33 - 33) =     17.54030  eV     1   --> A              
     e( 34 - 34) =     17.69268  eV     1   --> A              
     e( 35 - 35) =     20.62043  eV     1   --> A              
     e( 36 - 36) =     20.82880  eV     1   --> A              

 **************************************************************************

 **************************************************************************

                    xk=(   0.41667,   0.50000,   0.58333  )

     Band symmetry, C_1 (1)     point group:

     e(  1 -  1) =    -78.45668  eV     1   --> A              
     e(  2 -  2) =    -63.77566  eV     1   --> A              
     e(  3 -  3) =    -61.12538  eV     1   --> A              
     e(  4 -  4) =    -41.73711  eV     1   --> A              
     e(  5 -  6) =    -41.73695  eV     2   -->   2 A              
     e(  7 -  7) =    -32.51816  eV     1   --> A              
     e(  8 -  8) =    -32.51729  eV     1   --> A              
     e(  9 -  9) =    -32.51583  eV     1   --> A              
     e( 10 - 10) =    -29.93163  eV     1   --> A              
     e( 11 - 12) =    -29.92750  eV     2   -->   2 A              
     e( 13 - 13) =      2.50995  eV     1   --> A              
     e( 14 - 14) =      2.52396  eV     1   --> A              
     e( 15 - 15) =      2.52551  eV     1   --> A              
     e( 16 - 16) =      2.55874  eV     1   --> A              
     e( 17 - 17) =      2.56044  eV     1   --> A              
     e( 18 - 18) =      9.25501  eV     1   --> A              
     e( 19 - 19) =     10.88636  eV     1   --> A              
     e( 20 - 20) =     13.03862  eV     1   --> A              
     e( 21 - 21) =     13.11294  eV     1   --> A              
     e( 22 - 22) =     14.05023  eV     1   --> A              
     e( 23 - 23) =     14.07730  eV     1   --> A              
     e( 24 - 24) =     14.09992  eV     1   --> A              
     e( 25 - 25) =     15.00897  eV     1   --> A              
     e( 26 - 26) =     15.01959  eV     1   --> A              
     e( 27 - 27) =     15.64233  eV     1   --> A              
     e( 28 - 28) =     15.67391  eV     1   --> A              
     e( 29 - 29) =     15.93783  eV     1   --> A              
     e( 30 - 30) =     16.65368  eV     1   --> A              
     e( 31 - 31) =     16.67960  eV     1   --> A              
     e( 32 - 32) =     17.51739  eV     1   --> A              
     e( 33 - 33) =     17.53790  eV     1   --> A              
     e( 34 - 34) =     17.68752  eV     1   --> A              
     e( 35 - 35) =     20.81148  eV     1   --> A              
     e( 36 - 36) =     21.01299  eV     1   --> A              

 **************************************************************************

 **************************************************************************

                    xk=(   0.43333,   0.50000,   0.56667  )

     Band symmetry, C_1 (1)     point group:

     e(  1 -  1) =    -78.45668  eV     1   --> A              
     e(  2 -  2) =    -63.77566  eV     1   --> A              
     e(  3 -  3) =    -61.12538  eV     1   --> A              
     e(  4 -  4) =    -41.73708  eV     1   --> A              
     e(  5 -  6) =    -41.73694  eV     2   -->   2 A              
     e(  7 -  7) =    -32.51794  eV     1   --> A              
     e(  8 -  8) =    -32.51727  eV     1   --> A              
     e(  9 -  9) =    -32.51604  eV     1   --> A              
     e( 10 - 10) =    -29.93158  eV     1   --> A              
     e( 11 - 12) =    -29.92752  eV     2   -->   2 A              
     e( 13 - 13) =      2.50976  eV     1   --> A              
     e( 14 - 14) =      2.52421  eV     1   --> A              
     e( 15 - 15) =      2.52520  eV     1   --> A              
     e( 16 - 16) =      2.55926  eV     1   --> A              
     e( 17 - 17) =      2.56035  eV     1   --> A              
     e( 18 - 18) =      9.24444  eV     1   --> A              
     e( 19 - 19) =     10.86443  eV     1   --> A              
     e( 20 - 20) =     13.05386  eV     1   --> A              
     e( 21 - 21) =     13.10151  eV     1   --> A              
     e( 22 - 22) =     14.05506  eV     1   --> A              
     e( 23 - 23) =     14.07055  eV     1   --> A              
     e( 24 - 24) =     14.10247  eV     1   --> A              
     e( 25 - 25) =     15.01404  eV     1   --> A              
     e( 26 - 26) =     15.01959  eV     1   --> A              
     e( 27 - 27) =     15.65021  eV     1   --> A              
     e( 28 - 28) =     15.67067  eV     1   --> A              
     e( 29 - 29) =     15.93487  eV     1   --> A              
     e( 30 - 30) =     16.67045  eV     1   --> A              
     e( 31 - 31) =     16.68766  eV     1   --> A              
     e( 32 - 32) =     17.52242  eV     1   --> A              
     e( 33 - 33) =     17.53580  eV     1   --> A              
     e( 34 - 34) =     17.68333  eV     1   --> A              
     e( 35 - 35) =     21.00397  eV     1   --> A              
     e( 36 - 36) =     21.19210  eV     1   --> A              

 **************************************************************************

 **************************************************************************

                    xk=(   0.45000,   0.50000,   0.55000  )

     Band symmetry, C_1 (1)     point group:

     e(  1 -  1) =    -78.45668  eV     1   --> A              
     e(  2 -  2) =    -63.77566  eV     1   --> A              
     e(  3 -  3) =    -61.12537  eV     1   --> A              
     e(  4 -  4) =    -41.73706  eV     1   --> A              
     e(  5 -  6) =    -41.73694  eV     2   -->   2 A              
     e(  7 -  7) =    -32.51772  eV     1   --> A              
     e(  8 -  8) =    -32.51725  eV     1   --> A              
     e(  9 -  9) =    -32.51626  eV     1   --> A              
     e( 10 - 10) =    -29.93154  eV     1   --> A              
     e( 11 - 12) =    -29.92754  eV     2   -->   2 A              
     e( 13 - 13) =      2.50961  eV     1   --> A              
     e( 14 - 14) =      2.52440  eV     1   --> A              
     e( 15 - 15) =      2.52497  eV     1   --> A              
     e( 16 - 16) =      2.55967  eV     1   --> A              
     e( 17 - 17) =      2.56028  eV     1   --> A              
     e( 18 - 18) =      9.23617  eV     1   --> A              
     e( 19 - 19) =     10.84731  eV     1   --> A              
     e( 20 - 20) =     13.06571  eV     1   --> A              
     e( 21 - 21) =     13.09254  eV     1   --> A              
     e( 22 - 22) =     14.05702  eV     1   --> A              
     e( 23 - 23) =     14.06495  eV     1   --> A              
     e( 24 - 24) =     14.10680  eV     1   --> A              
     e( 25 - 25) =     15.01744  eV     1   --> A              
     e( 26 - 26) =     15.01983  eV     1   --> A              
     e( 27 - 27) =     15.65668  eV     1   --> A              
     e( 28 - 28) =     15.66832  eV     1   --> A              
     e( 29 - 29) =     15.93225  eV     1   --> A              
     e( 30 - 30) =     16.68383  eV     1   --> A              
     e( 31 - 31) =     16.69379  eV     1   --> A              
     e( 32 - 32) =     17.52644  eV     1   --> A              
     e( 33 - 33) =     17.53408  eV     1   --> A              
     e( 34 - 34) =     17.68008  eV     1   --> A              
     e( 35 - 35) =     21.19543  eV     1   --> A              
     e( 36 - 36) =     21.36003  eV     1   --> A              

 **************************************************************************

 **************************************************************************

                    xk=(   0.46667,   0.50000,   0.53333  )

     Band symmetry, C_1 (1)     point group:

     e(  1 -  1) =    -78.45668  eV     1   --> A              
     e(  2 -  2) =    -63.77566  eV     1   --> A              
     e(  3 -  3) =    -61.12537  eV     1   --> A              
     e(  4 -  6) =    -41.73704  eV     3   -->   3 A              
     e(  7 -  7) =    -32.51751  eV     1   --> A              
     e(  8 -  8) =    -32.51723  eV     1   --> A              
     e(  9 -  9) =    -32.51647  eV     1   --> A              
     e( 10 - 10) =    -29.93151  eV     1   --> A              
     e( 11 - 12) =    -29.92755  eV     2   -->   2 A              
     e( 13 - 13) =      2.50949  eV     1   --> A              
     e( 14 - 14) =      2.52455  eV     1   --> A              
     e( 15 - 15) =      2.52480  eV     1   --> A              
     e( 16 - 16) =      2.55996  eV     1   --> A              
     e( 17 - 17) =      2.56024  eV     1   --> A              
     e( 18 - 18) =      9.23024  eV     1   --> A              
     e( 19 - 19) =     10.83505  eV     1   --> A              
     e( 20 - 20) =     13.07417  eV     1   --> A              
     e( 21 - 21) =     13.08610  eV     1   --> A              
     e( 22 - 22) =     14.05758  eV     1   --> A              
     e( 23 - 23) =     14.06087  eV     1   --> A              
     e( 24 - 24) =     14.11095  eV     1   --> A              
     e( 25 - 25) =     15.01948  eV     1   --> A              
     e( 26 - 26) =     15.02022  eV     1   --> A              
     e( 27 - 27) =     15.66152  eV     1   --> A              
     e( 28 - 28) =     15.66673  eV     1   --> A              
     e( 29 - 29) =     15.93018  eV     1   --> A              
     e( 30 - 30) =     16.69357  eV     1   --> A              
     e( 31 - 31) =     16.69809  eV     1   --> A              
     e( 32 - 32) =     17.52937  eV     1   --> A              
     e( 33 - 33) =     17.53281  eV     1   --> A              
     e( 34 - 34) =     17.67778  eV     1   --> A              
     e( 35 - 35) =     21.38091  eV     1   --> A              
     e( 36 - 36) =     21.50622  eV     1   --> A              

 **************************************************************************

 **************************************************************************

                    xk=(   0.48333,   0.50000,   0.51667  )

     Band symmetry, C_1 (1)     point group:

     e(  1 -  1) =    -78.45668  eV     1   --> A              
     e(  2 -  2) =    -63.77567  eV     1   --> A              
     e(  3 -  3) =    -61.12537  eV     1   --> A              
     e(  4 -  6) =    -41.73702  eV     3   -->   3 A              
     e(  7 -  8) =    -32.51732  eV     2   -->   2 A              
     e(  9 -  9) =    -32.51666  eV     1   --> A              
     e( 10 - 10) =    -29.93149  eV     1   --> A              
     e( 11 - 12) =    -29.92756  eV     2   -->   2 A              
     e( 13 - 13) =      2.50942  eV     1   --> A              
     e( 14 - 15) =      2.52463  eV     2   -->   2 A              
     e( 16 - 17) =      2.56014  eV     2   -->   2 A              
     e( 18 - 18) =      9.22667  eV     1   --> A              
     e( 19 - 19) =     10.82767  eV     1   --> A              
     e( 20 - 20) =     13.07923  eV     1   --> A              
     e( 21 - 21) =     13.08222  eV     1   --> A              
     e( 22 - 22) =     14.05762  eV     1   --> A              
     e( 23 - 23) =     14.05842  eV     1   --> A              
     e( 24 - 24) =     14.11378  eV     1   --> A              
     e( 25 - 25) =     15.02048  eV     1   --> A              
     e( 26 - 26) =     15.02059  eV     1   --> A              
     e( 27 - 27) =     15.66451  eV     1   --> A              
     e( 28 - 28) =     15.66582  eV     1   --> A              
     e( 29 - 29) =     15.92886  eV     1   --> A              
     e( 30 - 30) =     16.69949  eV     1   --> A              
     e( 31 - 31) =     16.70063  eV     1   --> A              
     e( 32 - 32) =     17.53115  eV     1   --> A              
     e( 33 - 33) =     17.53202  eV     1   --> A              
     e( 34 - 34) =     17.67640  eV     1   --> A              
     e( 35 - 35) =     21.54924  eV     1   --> A              
     e( 36 - 36) =     21.61213  eV     1   --> A              

 **************************************************************************

 **************************************************************************

                    xk=(   0.50000,   0.50000,   0.50000  )

     point group C_3v (3m)  
     there are  3 classes
     the character table:

       E     2C3   3s_v 
A_1    1.00  1.00  1.00
A_2    1.00  1.00 -1.00
E      2.00 -1.00  0.00

     the symmetry operations in each class and the name of the first element:

     E        1
                                                                 
     2C3      2    3
                                                                 
     3s_v     4    5    6
                                                                 

     Band symmetry, C_3v (3m)   point group:

     e(  1 -  1) =    -78.45668  eV     1   --> A_1  L_1       
     e(  2 -  2) =    -63.77567  eV     1   --> A_1  L_1       
[...]
     e( 16 - 16) =      2.53921  eV     1   --> A              
     e( 17 - 17) =      2.56582  eV     1   --> A              
     e( 18 - 18) =      9.71750  eV     1   --> A              
     e( 19 - 19) =     11.90665  eV     1   --> A              
     e( 20 - 20) =     12.35305  eV     1   --> A              
     e( 21 - 21) =     13.50206  eV     1   --> A              
     e( 22 - 22) =     13.78605  eV     1   --> A              
     e( 23 - 23) =     14.15951  eV     1   --> A              
     e( 24 - 24) =     14.43065  eV     1   --> A              
     e( 25 - 25) =     14.74221  eV     1   --> A              
     e( 26 - 26) =     14.95342  eV     1   --> A              
     e( 27 - 27) =     15.55830  eV     1   --> A              
     e( 28 - 28) =     15.83634  eV     1   --> A              
     e( 29 - 29) =     15.87081  eV     1   --> A              
     e( 30 - 30) =     16.19612  eV     1   --> A              
     e( 31 - 31) =     16.22534  eV     1   --> A              
     e( 32 - 32) =     17.11918  eV     1   --> A              
     e( 33 - 33) =     17.61762  eV     1   --> A              
     e( 34 - 34) =     17.81781  eV     1   --> A              
     e( 35 - 35) =     18.28698  eV     1   --> A              
     e( 36 - 36) =     18.48467  eV     1   --> A              

 **************************************************************************

 **************************************************************************

                    xk=(   0.80000,   0.70000,  -0.00000  )

     Band symmetry, C_1 (1)     point group:

     e(  1 -  1) =    -78.45667  eV     1   --> A              
     e(  2 -  2) =    -63.77553  eV     1   --> A              
     e(  3 -  3) =    -61.12553  eV     1   --> A              
     e(  4 -  4) =    -41.73738  eV     1   --> A              
     e(  5 -  5) =    -41.73713  eV     1   --> A              
     e(  6 -  6) =    -41.73667  eV     1   --> A              
     e(  7 -  7) =    -32.52029  eV     1   --> A              
     e(  8 -  8) =    -32.51841  eV     1   --> A              
     e(  9 -  9) =    -32.51350  eV     1   --> A              
     e( 10 - 10) =    -29.93344  eV     1   --> A              
     e( 11 - 11) =    -29.92660  eV     1   --> A              
     e( 12 - 12) =    -29.92633  eV     1   --> A              
     e( 13 - 13) =      2.50187  eV     1   --> A              
     e( 14 - 14) =      2.52843  eV     1   --> A              
     e( 15 - 15) =      2.53633  eV     1   --> A              
     e( 16 - 16) =      2.53912  eV     1   --> A              
     e( 17 - 17) =      2.56583  eV     1   --> A              
     e( 18 - 18) =      9.71541  eV     1   --> A              
     e( 19 - 19) =     11.90179  eV     1   --> A              
     e( 20 - 20) =     12.35076  eV     1   --> A              
     e( 21 - 21) =     13.51457  eV     1   --> A              
     e( 22 - 22) =     13.77933  eV     1   --> A              
     e( 23 - 23) =     14.15760  eV     1   --> A              
     e( 24 - 24) =     14.43272  eV     1   --> A              
     e( 25 - 25) =     14.75564  eV     1   --> A              
     e( 26 - 26) =     14.93713  eV     1   --> A              
     e( 27 - 27) =     15.55946  eV     1   --> A              
     e( 28 - 28) =     15.83426  eV     1   --> A              
     e( 29 - 29) =     15.87512  eV     1   --> A              
     e( 30 - 30) =     16.20738  eV     1   --> A              
     e( 31 - 31) =     16.22641  eV     1   --> A              
     e( 32 - 32) =     17.11286  eV     1   --> A              
     e( 33 - 33) =     17.62305  eV     1   --> A              
     e( 34 - 34) =     17.81539  eV     1   --> A              
     e( 35 - 35) =     18.30206  eV     1   --> A              
     e( 36 - 36) =     18.48335  eV     1   --> A              

 **************************************************************************

 **************************************************************************

                    xk=(   0.79167,   0.70833,   0.00000  )

     Band symmetry, C_1 (1)     point group:

     e(  1 -  1) =    -78.45667  eV     1   --> A              
     e(  2 -  2) =    -63.77553  eV     1   --> A              
     e(  3 -  3) =    -61.12553  eV     1   --> A              
     e(  4 -  4) =    -41.73738  eV     1   --> A              
     e(  5 -  5) =    -41.73713  eV     1   --> A              
     e(  6 -  6) =    -41.73667  eV     1   --> A              
     e(  7 -  7) =    -32.52029  eV     1   --> A              
     e(  8 -  8) =    -32.51839  eV     1   --> A              
     e(  9 -  9) =    -32.51351  eV     1   --> A              
     e( 10 - 10) =    -29.93344  eV     1   --> A              
     e( 11 - 11) =    -29.92657  eV     1   --> A              
     e( 12 - 12) =    -29.92635  eV     1   --> A              
     e( 13 - 13) =      2.50168  eV     1   --> A              
     e( 14 - 14) =      2.52876  eV     1   --> A              
     e( 15 - 15) =      2.53623  eV     1   --> A              
     e( 16 - 16) =      2.53904  eV     1   --> A              
     e( 17 - 17) =      2.56584  eV     1   --> A              
     e( 18 - 18) =      9.71362  eV     1   --> A              
     e( 19 - 19) =     11.89766  eV     1   --> A              
     e( 20 - 20) =     12.34877  eV     1   --> A              
     e( 21 - 21) =     13.52569  eV     1   --> A              
     e( 22 - 22) =     13.77314  eV     1   --> A              
     e( 23 - 23) =     14.15601  eV     1   --> A              
     e( 24 - 24) =     14.43446  eV     1   --> A              
     e( 25 - 25) =     14.76922  eV     1   --> A              
     e( 26 - 26) =     14.92104  eV     1   --> A              
     e( 27 - 27) =     15.56047  eV     1   --> A              
     e( 28 - 28) =     15.83235  eV     1   --> A              
     e( 29 - 29) =     15.87884  eV     1   --> A              
     e( 30 - 30) =     16.21733  eV     1   --> A              
     e( 31 - 31) =     16.22735  eV     1   --> A              
     e( 32 - 32) =     17.10726  eV     1   --> A              
     e( 33 - 33) =     17.62780  eV     1   --> A              
     e( 34 - 34) =     17.81326  eV     1   --> A              
     e( 35 - 35) =     18.31585  eV     1   --> A              
     e( 36 - 36) =     18.48167  eV     1   --> A              

 **************************************************************************

 **************************************************************************

                    xk=(   0.78333,   0.71667,   0.00000  )

     Band symmetry, C_1 (1)     point group:

     e(  1 -  1) =    -78.45667  eV     1   --> A              
     e(  2 -  2) =    -63.77553  eV     1   --> A              
     e(  3 -  3) =    -61.12553  eV     1   --> A              
     e(  4 -  4) =    -41.73738  eV     1   --> A              
     e(  5 -  5) =    -41.73712  eV     1   --> A              
     e(  6 -  6) =    -41.73667  eV     1   --> A              
     e(  7 -  7) =    -32.52029  eV     1   --> A              
     e(  8 -  8) =    -32.51837  eV     1   --> A              
     e(  9 -  9) =    -32.51353  eV     1   --> A              
     e( 10 - 10) =    -29.93344  eV     1   --> A              
     e( 11 - 11) =    -29.92655  eV     1   --> A              
     e( 12 - 12) =    -29.92637  eV     1   --> A              
     e( 13 - 13) =      2.50153  eV     1   --> A              
     e( 14 - 14) =      2.52904  eV     1   --> A              
     e( 15 - 15) =      2.53613  eV     1   --> A              
     e( 16 - 16) =      2.53897  eV     1   --> A              
     e( 17 - 17) =      2.56585  eV     1   --> A              
     e( 18 - 18) =      9.71214  eV     1   --> A              
     e( 19 - 19) =     11.89427  eV     1   --> A              
     e( 20 - 20) =     12.34710  eV     1   --> A              
     e( 21 - 21) =     13.53522  eV     1   --> A              
     e( 22 - 22) =     13.76767  eV     1   --> A              
     e( 23 - 23) =     14.15473  eV     1   --> A              
     e( 24 - 24) =     14.43588  eV     1   --> A              
     e( 25 - 25) =     14.78293  eV     1   --> A              
     e( 26 - 26) =     14.90521  eV     1   --> A              
     e( 27 - 27) =     15.56133  eV     1   --> A              
     e( 28 - 28) =     15.83072  eV     1   --> A              
     e( 29 - 29) =     15.88191  eV     1   --> A              
     e( 30 - 30) =     16.22564  eV     1   --> A              
     e( 31 - 31) =     16.22827  eV     1   --> A              
     e( 32 - 32) =     17.10248  eV     1   --> A              
     e( 33 - 33) =     17.63179  eV     1   --> A              
     e( 34 - 34) =     17.81146  eV     1   --> A              
     e( 35 - 35) =     18.32801  eV     1   --> A              
     e( 36 - 36) =     18.47978  eV     1   --> A              

 **************************************************************************

 **************************************************************************

                    xk=(   0.77500,   0.72500,  -0.00000  )

     Band symmetry, C_1 (1)     point group:

     e(  1 -  1) =    -78.45667  eV     1   --> A              
     e(  2 -  2) =    -63.77553  eV     1   --> A              
     e(  3 -  3) =    -61.12553  eV     1   --> A              
     e(  4 -  4) =    -41.73738  eV     1   --> A              
     e(  5 -  5) =    -41.73712  eV     1   --> A              
     e(  6 -  6) =    -41.73667  eV     1   --> A              
     e(  7 -  7) =    -32.52029  eV     1   --> A              
     e(  8 -  8) =    -32.51836  eV     1   --> A              
     e(  9 -  9) =    -32.51354  eV     1   --> A              
     e( 10 - 10) =    -29.93345  eV     1   --> A              
     e( 11 - 11) =    -29.92653  eV     1   --> A              
     e( 12 - 12) =    -29.92639  eV     1   --> A              
     e( 13 - 13) =      2.50141  eV     1   --> A              
     e( 14 - 14) =      2.52928  eV     1   --> A              
     e( 15 - 15) =      2.53605  eV     1   --> A              
     e( 16 - 16) =      2.53892  eV     1   --> A              
     e( 17 - 17) =      2.56586  eV     1   --> A              
     e( 18 - 18) =      9.71099  eV     1   --> A              
     e( 19 - 19) =     11.89164  eV     1   --> A              
     e( 20 - 20) =     12.34577  eV     1   --> A              
     e( 21 - 21) =     13.54296  eV     1   --> A              
     e( 22 - 22) =     13.76312  eV     1   --> A              
     e( 23 - 23) =     14.15375  eV     1   --> A              
     e( 24 - 24) =     14.43697  eV     1   --> A              
     e( 25 - 25) =     14.79673  eV     1   --> A              
     e( 26 - 26) =     14.88973  eV     1   --> A              
     e( 27 - 27) =     15.56202  eV     1   --> A              
     e( 28 - 28) =     15.82941  eV     1   --> A              
     e( 29 - 29) =     15.88431  eV     1   --> A              
     e( 30 - 30) =     16.22854  eV     1   --> A              
     e( 31 - 31) =     16.23276  eV     1   --> A              
     e( 32 - 32) =     17.09864  eV     1   --> A              
     e( 33 - 33) =     17.63498  eV     1   --> A              
     e( 34 - 34) =     17.81002  eV     1   --> A              
     e( 35 - 35) =     18.33813  eV     1   --> A              
     e( 36 - 36) =     18.47785  eV     1   --> A              

 **************************************************************************

 **************************************************************************

                    xk=(   0.76667,   0.73333,   0.00000  )

     Band symmetry, C_1 (1)     point group:

     e(  1 -  1) =    -78.45667  eV     1   --> A              
     e(  2 -  2) =    -63.77553  eV     1   --> A              
     e(  3 -  3) =    -61.12553  eV     1   --> A              
     e(  4 -  4) =    -41.73738  eV     1   --> A              
     e(  5 -  5) =    -41.73712  eV     1   --> A              
     e(  6 -  6) =    -41.73667  eV     1   --> A              
     e(  7 -  7) =    -32.52029  eV     1   --> A              
     e(  8 -  8) =    -32.51835  eV     1   --> A              
     e(  9 -  9) =    -32.51355  eV     1   --> A              
     e( 10 - 10) =    -29.93345  eV     1   --> A              
     e( 11 - 11) =    -29.92652  eV     1   --> A              
     e( 12 - 12) =    -29.92641  eV     1   --> A              
     e( 13 - 13) =      2.50133  eV     1   --> A              
     e( 14 - 14) =      2.52945  eV     1   --> A              
     e( 15 - 15) =      2.53599  eV     1   --> A              
     e( 16 - 16) =      2.53889  eV     1   --> A              
     e( 17 - 17) =      2.56587  eV     1   --> A              
     e( 18 - 18) =      9.71015  eV     1   --> A              
     e( 19 - 19) =     11.88975  eV     1   --> A              
     e( 20 - 20) =     12.34481  eV     1   --> A              
     e( 21 - 21) =     13.54869  eV     1   --> A              
     e( 22 - 22) =     13.75967  eV     1   --> A              
     e( 23 - 23) =     14.15306  eV     1   --> A              
     e( 24 - 24) =     14.43775  eV     1   --> A              
     e( 25 - 25) =     14.81042  eV     1   --> A              
     e( 26 - 26) =     14.87482  eV     1   --> A              
     e( 27 - 27) =     15.56251  eV     1   --> A              
     e( 28 - 28) =     15.82845  eV     1   --> A              
     e( 29 - 29) =     15.88602  eV     1   --> A              
     e( 30 - 30) =     16.22904  eV     1   --> A              
     e( 31 - 31) =     16.23765  eV     1   --> A              
     e( 32 - 32) =     17.09583  eV     1   --> A              
     e( 33 - 33) =     17.63730  eV     1   --> A              
     e( 34 - 34) =     17.80897  eV     1   --> A              
     e( 35 - 35) =     18.34580  eV     1   --> A              
     e( 36 - 36) =     18.47617  eV     1   --> A              

 **************************************************************************

 **************************************************************************

                    xk=(   0.75833,   0.74167,   0.00000  )

     Band symmetry, C_1 (1)     point group:

     e(  1 -  1) =    -78.45667  eV     1   --> A              
     e(  2 -  2) =    -63.77553  eV     1   --> A              
     e(  3 -  3) =    -61.12553  eV     1   --> A              
     e(  4 -  4) =    -41.73738  eV     1   --> A              
     e(  5 -  5) =    -41.73712  eV     1   --> A              
     e(  6 -  6) =    -41.73668  eV     1   --> A              
     e(  7 -  7) =    -32.52029  eV     1   --> A              
     e(  8 -  8) =    -32.51835  eV     1   --> A              
     e(  9 -  9) =    -32.51355  eV     1   --> A              
     e( 10 - 10) =    -29.93345  eV     1   --> A              
     e( 11 - 12) =    -29.92650  eV     2   -->   2 A              
     e( 13 - 13) =      2.50128  eV     1   --> A              
     e( 14 - 14) =      2.52955  eV     1   --> A              
     e( 15 - 15) =      2.53595  eV     1   --> A              
     e( 16 - 16) =      2.53887  eV     1   --> A              
     e( 17 - 17) =      2.56587  eV     1   --> A              
     e( 18 - 18) =      9.70965  eV     1   --> A              
     e( 19 - 19) =     11.88862  eV     1   --> A              
     e( 20 - 20) =     12.34423  eV     1   --> A              
     e( 21 - 21) =     13.55221  eV     1   --> A              
     e( 22 - 22) =     13.75751  eV     1   --> A              
     e( 23 - 23) =     14.15264  eV     1   --> A              
     e( 24 - 24) =     14.43822  eV     1   --> A              
     e( 25 - 25) =     14.82324  eV     1   --> A              
     e( 26 - 26) =     14.86125  eV     1   --> A              
     e( 27 - 27) =     15.56282  eV     1   --> A              
     e( 28 - 28) =     15.82787  eV     1   --> A              
     e( 29 - 29) =     15.88704  eV     1   --> A              
     e( 30 - 30) =     16.22932  eV     1   --> A              
     e( 31 - 31) =     16.24066  eV     1   --> A              
     e( 32 - 32) =     17.09412  eV     1   --> A              
     e( 33 - 33) =     17.63870  eV     1   --> A              
     e( 34 - 34) =     17.80833  eV     1   --> A              
     e( 35 - 35) =     18.35061  eV     1   --> A              
     e( 36 - 36) =     18.47499  eV     1   --> A              

 **************************************************************************

 **************************************************************************

                    xk=(   0.75000,   0.75000,   0.00000  )

     point group C_s (m)    
     there are  2 classes
     the character table:

       E     s    
A'     1.00  1.00
A''    1.00 -1.00

     the symmetry operations in each class and the name of the first element:

     E        1
                                                                 
     s        2
                                                                 

     Band symmetry, C_s (m)     point group:

     e(  1 -  1) =    -78.45667  eV     1   --> A'             
     e(  2 -  2) =    -63.77553  eV     1   --> A'             
     e(  3 -  3) =    -61.12553  eV     1   --> A'             
     e(  4 -  4) =    -41.73738  eV     1   --> A'             
     e(  5 -  5) =    -41.73712  eV     1   --> A''            
     e(  6 -  6) =    -41.73668  eV     1   --> A'             
     e(  7 -  7) =    -32.52029  eV     1   --> A'             
     e(  8 -  8) =    -32.51835  eV     1   --> A''            
     e(  9 -  9) =    -32.51355  eV     1   --> A'             
     e( 10 - 10) =    -29.93345  eV     1   --> A'             
     e( 11 - 12) =    -29.92650  eV     2   --> A'             
     e( 11 - 12) =    -29.92650  eV     2   --> A''            
     e( 13 - 13) =      2.50126  eV     1   --> A'             
     e( 14 - 14) =      2.52959  eV     1   --> A'             
     e( 15 - 15) =      2.53594  eV     1   --> A''            
     e( 16 - 16) =      2.53886  eV     1   --> A'             
     e( 17 - 17) =      2.56587  eV     1   --> A''            
     e( 18 - 18) =      9.70949  eV     1   --> A'             
     e( 19 - 19) =     11.88824  eV     1   --> A'             
     e( 20 - 20) =     12.34404  eV     1   --> A'             
     e( 21 - 21) =     13.55340  eV     1   --> A'             
     e( 22 - 22) =     13.75678  eV     1   --> A''            
     e( 23 - 23) =     14.15251  eV     1   --> A''            
     e( 24 - 24) =     14.43837  eV     1   --> A'             
     e( 25 - 25) =     14.83046  eV     1   --> A''            
     e( 26 - 26) =     14.85378  eV     1   --> A'             
     e( 27 - 27) =     15.56292  eV     1   --> A'             
     e( 28 - 28) =     15.82768  eV     1   --> A''            
     e( 29 - 29) =     15.88738  eV     1   --> A'             
     e( 30 - 30) =     16.22941  eV     1   --> A'             
     e( 31 - 31) =     16.24167  eV     1   --> A''            
     e( 32 - 32) =     17.09354  eV     1   --> A'             
     e( 33 - 33) =     17.63918  eV     1   --> A''            
     e( 34 - 34) =     17.80812  eV     1   --> A'             
     e( 35 - 35) =     18.35225  eV     1   --> A'             
     e( 36 - 36) =     18.47457  eV     1   --> A''            

 **************************************************************************

     BANDS        :  45m18.32s CPU  52m33.08s WALL


   This run was terminated on:   0: 7:23   1Jan2021            

=------------------------------------------------------------------------------=
   JOB DONE.
=------------------------------------------------------------------------------=
