
     Program PWSCF v.6.4.1 starts on 31Dec2020 at 18:26:17 

     This program is part of the open-source Quantum ESPRESSO suite
     for quantum simulation of materials; please cite
         "P. Giannozzi et al., J. Phys.:Condens. Matter 21 395502 (2009);
         "P. Giannozzi et al., J. Phys.:Condens. Matter 29 465901 (2017);
          URL http://www.quantum-espresso.org", 
     in publications or presentations arising from this work. More details at
     http://www.quantum-espresso.org/quote

     Parallel version (MPI), running on     4 processors

     MPI processes distributed on     1 nodes
     R & G space division:  proc/nbgrp/npool/nimage =       4
     Waiting for input...
     Reading input from standard input
Warning: card  &IONS ignored
Warning: card  / ignored
Warning: card  &CELL ignored
Warning: card  / ignored

     Current dimensions of program PWSCF are:
     Max number of different atomic species (ntypx) = 10
     Max number of k-points (npk) =  40000
     Max angular momentum in pseudopotentials (lmaxx) =  3

     Atomic positions and unit cell read from directory:
     ./Mn2CoGa.save/

               file Ga.pbe-dn-kjpaw_psl.1.0.0.UPF: wavefunction(s)  4S renormalized

     Subspace diagonalization in iterative solution of the eigenvalue problem:
     a serial algorithm will be used


     Parallelization info
     --------------------
     sticks:   dense  smooth     PW     G-vecs:    dense   smooth      PW
     Min        2067     826    228               124085    31361    4512
     Max        2068     828    229               124089    31362    4515
     Sum        8269    3307    913               496345   125445   18053


     Title: 
     Mn2CoGa                                                                    


     bravais-lattice index     =            2
     lattice parameter (alat)  =      10.9569  a.u.
     unit-cell volume          =     328.8522 (a.u.)^3
     number of atoms/cell      =            4
     number of atomic types    =            3
     number of electrons       =        60.00
     number of Kohn-Sham states=           36
     kinetic-energy cutoff     =     200.0000  Ry
     charge density cutoff     =    2000.0000  Ry
     Exchange-correlation      = SLA PW PBX PBC ( 1  4  3  4 0 0)

     celldm(1)=  10.956880  celldm(2)=   0.000000  celldm(3)=   0.000000
     celldm(4)=   0.000000  celldm(5)=   0.000000  celldm(6)=   0.000000

     crystal axes: (cart. coord. in units of alat)
               a(1) = (  -0.500000   0.000000   0.500000 )  
               a(2) = (   0.000000   0.500000   0.500000 )  
               a(3) = (  -0.500000   0.500000   0.000000 )  

     reciprocal axes: (cart. coord. in units 2 pi/alat)
               b(1) = ( -1.000000 -1.000000  1.000000 )  
               b(2) = (  1.000000  1.000000  1.000000 )  
               b(3) = ( -1.000000  1.000000 -1.000000 )  


     PseudoPot. # 1 for Mn read from file:
     /home/ujjawal/QE/QE_Sample_Input_Files/SSSP_efficiency_pseudos/mn_pbe_v1.5.uspp.F.UPF
     MD5 check sum: 82ef2b46521d7a7d9e736dc3972e4928
     Pseudo is Ultrasoft + core correction, Zval = 15.0
     Generated by new atomic code, or converted to UPF format
     Using radial grid of  859 points,  6 beta functions with: 
                l(1) =   0
                l(2) =   0
                l(3) =   1
                l(4) =   1
                l(5) =   2
                l(6) =   2
     Q(r) pseudized with  8 coefficients,  rinner =    0.950   0.950   0.950
                                                       0.950   0.950

     PseudoPot. # 2 for Co read from file:
     /home/ujjawal/QE/QE_Sample_Input_Files/SSSP_efficiency_pseudos/Co_pbe_v1.2.uspp.F.UPF
     MD5 check sum: 5f91765df6ddd3222702df6e7b74a16d
     Pseudo is Ultrasoft + core correction, Zval = 17.0
     Generated by new atomic code, or converted to UPF format
     Using radial grid of  863 points,  6 beta functions with: 
                l(1) =   0
                l(2) =   0
                l(3) =   1
                l(4) =   1
                l(5) =   2
                l(6) =   2
     Q(r) pseudized with  8 coefficients,  rinner =    1.200   1.200   1.200
                                                       1.200   1.200

     PseudoPot. # 3 for Ga read from file:
     /home/ujjawal/QE/QE_Sample_Input_Files/SSSP_efficiency_pseudos/Ga.pbe-dn-kjpaw_psl.1.0.0.UPF
     MD5 check sum: a27b4342b1af7e5f338de752e9ed7044
     Pseudo is Projector augmented-wave + core cor, Zval = 13.0
     Generated using "atomic" code by A. Dal Corso v.5.1
     Shape of augmentation charge: PSQ
     Using radial grid of 1205 points,  6 beta functions with: 
                l(1) =   0
                l(2) =   0
                l(3) =   1
                l(4) =   1
                l(5) =   2
                l(6) =   2
     Q(r) pseudized with 0 coefficients 


     atomic species   valence    mass     pseudopotential
        Mn            15.00    54.93804     Mn( 1.00)
        Co            17.00    58.93319     Co( 1.00)
        Ga            13.00    69.72300     Ga( 1.00)

     Starting magnetic structure 
     atomic species   magnetization
        Mn          -0.167
        Co          -0.083
        Ga           0.005

     24 Sym. Ops. (no inversion) found



   Cartesian axes

     site n.     atom                  positions (alat units)
         1           Co  tau(   1) = (   0.5000000   0.5000000   0.5000000  )
         2           Mn  tau(   2) = (   0.2500000   0.2500000   0.2500000  )
         3           Ga  tau(   3) = (   0.7500000   0.7500000   0.7500000  )
         4           Mn  tau(   4) = (   0.0000000   0.0000000   0.0000000  )

     number of k points=   151 (tetrahedron method)

     Number of k-points >= 100: set verbosity='high' to print them.

     Dense  grid:   496345 G-vectors     FFT dimensions: ( 120, 120, 120)

     Smooth grid:   125445 G-vectors     FFT dimensions: (  72,  72,  72)

     Estimated max dynamical RAM per process >     454.58 MB

     Estimated total dynamical RAM >       1.78 GB
     Generating pointlists ...
     new r_m :   0.1786 (alat units)  1.9571 (a.u.) for type    1
     new r_m :   0.1786 (alat units)  1.9571 (a.u.) for type    2
     new r_m :   0.1786 (alat units)  1.9571 (a.u.) for type    3

     Check: negative core charge=   -0.000003

     The potential is recalculated from file :
     ./Mn2CoGa.save/charge-density

     Starting wfcs are   48 randomized atomic wfcs
     Checking if some PAW data can be deallocated... 

     Band Structure Calculation
     Davidson diagonalization with overlap
     c_bands:  1 eigenvalues not converged

     ethr =  1.67E-09,  avg # of iterations = 19.3

     total cpu time spent up to now is     8710.3 secs

     End of band structure calculation

     Number of k-points >= 100: set verbosity='high' to print the bands.

     Writing output data file Mn2CoGa.save/

     init_run     :     15.77s CPU     53.19s WALL (       1 calls)
     electrons    :   8146.14s CPU   8650.59s WALL (       1 calls)

     Called by init_run:
     wfcinit      :      0.00s CPU      1.87s WALL (       1 calls)
     potinit      :      5.52s CPU      6.23s WALL (       1 calls)
     hinit0       :      4.49s CPU      5.00s WALL (       1 calls)

     Called by electrons:
     c_bands      :   8146.13s CPU   8650.57s WALL (       1 calls)
     v_of_rho     :      3.60s CPU      3.89s WALL (       1 calls)
     newd         :      4.79s CPU     38.56s WALL (       1 calls)
     PAW_pot      :      1.36s CPU      1.40s WALL (       1 calls)

     Called by c_bands:
     init_us_2    :      3.12s CPU      3.69s WALL (     302 calls)
     cegterg      :   7541.54s CPU   7946.31s WALL (     364 calls)

     Called by sum_band:

     Called by *egterg:
     h_psi        :   5071.86s CPU   5403.31s WALL (    6503 calls)
     s_psi        :    413.61s CPU    428.41s WALL (    6503 calls)
     g_psi        :     26.94s CPU     27.94s WALL (    5837 calls)
     cdiaghg      :    111.23s CPU    115.40s WALL (    6139 calls)

     Called by h_psi:
     h_psi:pot    :   5051.22s CPU   5381.76s WALL (    6503 calls)
     h_psi:calbec :    411.23s CPU    427.05s WALL (    6503 calls)
     vloc_psi     :   4222.27s CPU   4521.71s WALL (    6503 calls)
     add_vuspsi   :    417.42s CPU    432.90s WALL (    6503 calls)

     General routines
     calbec       :    411.15s CPU    426.99s WALL (    6503 calls)
     fft          :      2.73s CPU      3.11s WALL (      23 calls)
     ffts         :      0.05s CPU      0.05s WALL (       2 calls)
     fftw         :   3514.53s CPU   3765.53s WALL (  323580 calls)
     interpolate  :      0.30s CPU      0.32s WALL (       2 calls)
     davcio       :      0.56s CPU    107.79s WALL (     604 calls)

     Parallel routines
     fft_scatt_xy :    754.25s CPU    791.54s WALL (  323605 calls)
     fft_scatt_yz :    775.75s CPU    879.23s WALL (  323605 calls)

     PWSCF        :      2h16m CPU      2h27m WALL


   This run was terminated on:  20:53:34  31Dec2020            

=------------------------------------------------------------------------------=
   JOB DONE.
=------------------------------------------------------------------------------=
