
     Program PWSCF v.6.4.1 starts on 22Dec2020 at 15:12:23 

     This program is part of the open-source Quantum ESPRESSO suite
     for quantum simulation of materials; please cite
         "P. Giannozzi et al., J. Phys.:Condens. Matter 21 395502 (2009);
         "P. Giannozzi et al., J. Phys.:Condens. Matter 29 465901 (2017);
          URL http://www.quantum-espresso.org", 
     in publications or presentations arising from this work. More details at
     http://www.quantum-espresso.org/quote

     Parallel version (MPI), running on     4 processors

     MPI processes distributed on     1 nodes
     R & G space division:  proc/nbgrp/npool/nimage =       4
     Waiting for input...
     Reading input from standard input

     Current dimensions of program PWSCF are:
     Max number of different atomic species (ntypx) = 10
     Max number of k-points (npk) =  40000
     Max angular momentum in pseudopotentials (lmaxx) =  3
               file Ga.pbe-dn-kjpaw_psl.1.0.0.UPF: wavefunction(s)  4S renormalized

     Subspace diagonalization in iterative solution of the eigenvalue problem:
     a serial algorithm will be used


     Parallelization info
     --------------------
     sticks:   dense  smooth     PW     G-vecs:    dense   smooth      PW
     Min        1204     480    139                55265    13962    2110
     Max        1205     481    141                55268    13963    2111
     Sum        4819    1921    559               221067    55849    8441


     Title: 
     Mn2CoGa                                                                    


     bravais-lattice index     =            2
     lattice parameter (alat)  =      10.0000  a.u.
     unit-cell volume          =     250.0000 (a.u.)^3
     number of atoms/cell      =            4
     number of atomic types    =            3
     number of electrons       =        60.00
     number of Kohn-Sham states=           36
     kinetic-energy cutoff     =     140.0000  Ry
     charge density cutoff     =    1400.0000  Ry
     convergence threshold     =      1.0E-06
     mixing beta               =       0.7000
     number of iterations used =            8  plain     mixing
     Exchange-correlation      = SLA PW PBX PBC ( 1  4  3  4 0 0)
     nstep                     =           50


     celldm(1)=  10.000000  celldm(2)=   0.000000  celldm(3)=   0.000000
     celldm(4)=   0.000000  celldm(5)=   0.000000  celldm(6)=   0.000000

     crystal axes: (cart. coord. in units of alat)
               a(1) = (  -0.500000   0.000000   0.500000 )  
               a(2) = (   0.000000   0.500000   0.500000 )  
               a(3) = (  -0.500000   0.500000   0.000000 )  

     reciprocal axes: (cart. coord. in units 2 pi/alat)
               b(1) = ( -1.000000 -1.000000  1.000000 )  
               b(2) = (  1.000000  1.000000  1.000000 )  
               b(3) = ( -1.000000  1.000000 -1.000000 )  


     PseudoPot. # 1 for Mn read from file:
     /home/ujjawal/QE/QE_Sample_Input_Files/SSSP_efficiency_pseudos/mn_pbe_v1.5.uspp.F.UPF
     MD5 check sum: 82ef2b46521d7a7d9e736dc3972e4928
     Pseudo is Ultrasoft + core correction, Zval = 15.0
     Generated by new atomic code, or converted to UPF format
     Using radial grid of  859 points,  6 beta functions with: 
                l(1) =   0
                l(2) =   0
                l(3) =   1
                l(4) =   1
                l(5) =   2
                l(6) =   2
     Q(r) pseudized with  8 coefficients,  rinner =    0.950   0.950   0.950
                                                       0.950   0.950

     PseudoPot. # 2 for Co read from file:
     /home/ujjawal/QE/QE_Sample_Input_Files/SSSP_efficiency_pseudos/Co_pbe_v1.2.uspp.F.UPF
     MD5 check sum: 5f91765df6ddd3222702df6e7b74a16d
     Pseudo is Ultrasoft + core correction, Zval = 17.0
     Generated by new atomic code, or converted to UPF format
     Using radial grid of  863 points,  6 beta functions with: 
                l(1) =   0
                l(2) =   0
                l(3) =   1
                l(4) =   1
                l(5) =   2
                l(6) =   2
     Q(r) pseudized with  8 coefficients,  rinner =    1.200   1.200   1.200
                                                       1.200   1.200

     PseudoPot. # 3 for Ga read from file:
     /home/ujjawal/QE/QE_Sample_Input_Files/SSSP_efficiency_pseudos/Ga.pbe-dn-kjpaw_psl.1.0.0.UPF
     MD5 check sum: a27b4342b1af7e5f338de752e9ed7044
     Pseudo is Projector augmented-wave + core cor, Zval = 13.0
     Generated using "atomic" code by A. Dal Corso v.5.1
     Shape of augmentation charge: PSQ
     Using radial grid of 1205 points,  6 beta functions with: 
                l(1) =   0
                l(2) =   0
                l(3) =   1
                l(4) =   1
                l(5) =   2
                l(6) =   2
     Q(r) pseudized with 0 coefficients 


     atomic species   valence    mass     pseudopotential
        Mn            15.00    54.93804     Mn( 1.00)
        Co            17.00    58.93319     Co( 1.00)
        Ga            13.00    69.72300     Ga( 1.00)

     Starting magnetic structure 
     atomic species   magnetization
        Mn           0.500
        Co          -0.300
        Ga           0.100

     24 Sym. Ops. (no inversion) found



   Cartesian axes

     site n.     atom                  positions (alat units)
         1           Co  tau(   1) = (   0.5000000   0.5000000   0.5000000  )
         2           Mn  tau(   2) = (   0.2500000   0.2500000   0.2500000  )
         3           Ga  tau(   3) = (   0.7500000   0.7500000   0.7500000  )
         4           Mn  tau(   4) = (   0.0000000   0.0000000   0.0000000  )

     number of k points=    16  Marzari-Vanderbilt smearing, width (Ry)=  0.0100
                       cart. coord. in units 2pi/alat
        k(    1) = (   0.0000000   0.0000000   0.0000000), wk =   0.0046296
        k(    2) = (  -0.1666667   0.1666667  -0.1666667), wk =   0.0370370
        k(    3) = (  -0.3333333   0.3333333  -0.3333333), wk =   0.0370370
        k(    4) = (   0.5000000  -0.5000000   0.5000000), wk =   0.0185185
        k(    5) = (   0.0000000   0.3333333   0.0000000), wk =   0.0277778
        k(    6) = (  -0.1666667   0.5000000  -0.1666667), wk =   0.1111111
        k(    7) = (   0.6666667  -0.3333333   0.6666667), wk =   0.1111111
        k(    8) = (   0.5000000  -0.1666667   0.5000000), wk =   0.1111111
        k(    9) = (   0.3333333   0.0000000   0.3333333), wk =   0.0555556
        k(   10) = (   0.0000000   0.6666667   0.0000000), wk =   0.0277778
        k(   11) = (   0.8333333  -0.1666667   0.8333333), wk =   0.1111111
        k(   12) = (   0.6666667  -0.0000000   0.6666667), wk =   0.0555556
        k(   13) = (   0.0000000  -1.0000000   0.0000000), wk =   0.0138889
        k(   14) = (   0.6666667  -0.3333333   1.0000000), wk =   0.1111111
        k(   15) = (   0.5000000  -0.1666667   0.8333333), wk =   0.1111111
        k(   16) = (  -0.3333333  -1.0000000   0.0000000), wk =   0.0555556

     Dense  grid:   221067 G-vectors     FFT dimensions: (  90,  90,  90)

     Smooth grid:    55849 G-vectors     FFT dimensions: (  54,  54,  54)

     Estimated max dynamical RAM per process >     295.83 MB

     Estimated total dynamical RAM >       1.16 GB
     Generating pointlists ...
     new r_m :   0.1786 (alat units)  1.7862 (a.u.) for type    1
     new r_m :   0.1786 (alat units)  1.7862 (a.u.) for type    2
     new r_m :   0.1786 (alat units)  1.7862 (a.u.) for type    3

     Check: negative core charge=   -0.000011

     Initial potential from superposition of free atoms

     starting charge   57.99687, renormalised to   60.00000
     Starting wfcs are   48 randomized atomic wfcs
     Checking if some PAW data can be deallocated... 

     total cpu time spent up to now is      150.6 secs

     Self-consistent Calculation

     iteration #  1     ecut=   140.00 Ry     beta= 0.70
     Davidson diagonalization with overlap
     ethr =  1.00E-02,  avg # of iterations =  2.6

     total cpu time spent up to now is      306.6 secs

     total energy              =    -993.56910568 Ry
     Harris-Foulkes estimate   =    -998.62699603 Ry
     estimated scf accuracy    <       8.64378089 Ry

     total magnetization       =     3.01 Bohr mag/cell
     absolute magnetization    =     8.43 Bohr mag/cell

     iteration #  2     ecut=   140.00 Ry     beta= 0.70
     Davidson diagonalization with overlap
     ethr =  1.00E-02,  avg # of iterations =  3.0

     total cpu time spent up to now is      422.8 secs

     total energy              =    -995.35614422 Ry
     Harris-Foulkes estimate   =   -1008.51278831 Ry
     estimated scf accuracy    <      38.25629439 Ry

     total magnetization       =     3.61 Bohr mag/cell
     absolute magnetization    =     4.24 Bohr mag/cell

     iteration #  3     ecut=   140.00 Ry     beta= 0.70
     Davidson diagonalization with overlap
     ethr =  1.00E-02,  avg # of iterations =  3.0

     total cpu time spent up to now is      523.5 secs

     total energy              =    -996.59679043 Ry
     Harris-Foulkes estimate   =    -999.41691933 Ry
     estimated scf accuracy    <      11.24860039 Ry

     total magnetization       =     2.49 Bohr mag/cell
     absolute magnetization    =     4.05 Bohr mag/cell

     iteration #  4     ecut=   140.00 Ry     beta= 0.70
     Davidson diagonalization with overlap
     ethr =  1.00E-02,  avg # of iterations =  2.4

     total cpu time spent up to now is      629.9 secs

     total energy              =    -997.44155328 Ry
     Harris-Foulkes estimate   =    -999.84762865 Ry
     estimated scf accuracy    <      19.54230417 Ry

     total magnetization       =     1.00 Bohr mag/cell
     absolute magnetization    =     2.18 Bohr mag/cell

     iteration #  5     ecut=   140.00 Ry     beta= 0.70
     Davidson diagonalization with overlap
     ethr =  1.00E-02,  avg # of iterations =  2.0

     total cpu time spent up to now is      709.6 secs

     total energy              =    -998.38831256 Ry
     Harris-Foulkes estimate   =    -998.67086603 Ry
     estimated scf accuracy    <       1.07474025 Ry

     total magnetization       =     1.97 Bohr mag/cell
     absolute magnetization    =     3.52 Bohr mag/cell

     iteration #  6     ecut=   140.00 Ry     beta= 0.70
     Davidson diagonalization with overlap
     ethr =  1.79E-03,  avg # of iterations =  3.9

     total cpu time spent up to now is      800.9 secs

     total energy              =    -997.33650139 Ry
     Harris-Foulkes estimate   =    -999.57555731 Ry
     estimated scf accuracy    <      21.01586878 Ry

     total magnetization       =     1.06 Bohr mag/cell
     absolute magnetization    =     2.09 Bohr mag/cell

     iteration #  7     ecut=   140.00 Ry     beta= 0.70
     Davidson diagonalization with overlap
     ethr =  1.79E-03,  avg # of iterations =  3.0

     total cpu time spent up to now is      909.2 secs

     total energy              =    -998.60180664 Ry
     Harris-Foulkes estimate   =    -998.74916804 Ry
     estimated scf accuracy    <       0.96273723 Ry

     total magnetization       =     1.89 Bohr mag/cell
     absolute magnetization    =     1.98 Bohr mag/cell

     iteration #  8     ecut=   140.00 Ry     beta= 0.70
     Davidson diagonalization with overlap
     ethr =  1.60E-03,  avg # of iterations =  1.7

     total cpu time spent up to now is     1025.8 secs

     total energy              =    -998.66913983 Ry
     Harris-Foulkes estimate   =    -998.72156498 Ry
     estimated scf accuracy    <       0.33182868 Ry

     total magnetization       =     1.97 Bohr mag/cell
     absolute magnetization    =     2.05 Bohr mag/cell

     iteration #  9     ecut=   140.00 Ry     beta= 0.70
     Davidson diagonalization with overlap
     ethr =  5.53E-04,  avg # of iterations =  2.0

     total cpu time spent up to now is     1125.2 secs

     total energy              =    -998.69162020 Ry
     Harris-Foulkes estimate   =    -998.72341187 Ry
     estimated scf accuracy    <       0.17325971 Ry

     total magnetization       =     2.01 Bohr mag/cell
     absolute magnetization    =     2.40 Bohr mag/cell

     iteration # 10     ecut=   140.00 Ry     beta= 0.70
     Davidson diagonalization with overlap
     ethr =  2.89E-04,  avg # of iterations =  2.2

     total cpu time spent up to now is     1202.0 secs

     total energy              =    -998.71076419 Ry
     Harris-Foulkes estimate   =    -998.72959832 Ry
     estimated scf accuracy    <       0.19005500 Ry

     total magnetization       =     2.09 Bohr mag/cell
     absolute magnetization    =     2.69 Bohr mag/cell

     iteration # 11     ecut=   140.00 Ry     beta= 0.70
     Davidson diagonalization with overlap
     ethr =  2.89E-04,  avg # of iterations =  1.2

     total cpu time spent up to now is     1277.0 secs

     total energy              =    -998.72359366 Ry
     Harris-Foulkes estimate   =    -998.72345561 Ry
     estimated scf accuracy    <       0.00157915 Ry

     total magnetization       =     2.05 Bohr mag/cell
     absolute magnetization    =     3.23 Bohr mag/cell

     iteration # 12     ecut=   140.00 Ry     beta= 0.70
     Davidson diagonalization with overlap
     ethr =  2.63E-06,  avg # of iterations =  4.8

     total cpu time spent up to now is     1401.1 secs

     total energy              =    -998.72767048 Ry
     Harris-Foulkes estimate   =    -998.72781114 Ry
     estimated scf accuracy    <       0.00092412 Ry

     total magnetization       =     2.04 Bohr mag/cell
     absolute magnetization    =     3.23 Bohr mag/cell

     iteration # 13     ecut=   140.00 Ry     beta= 0.70
     Davidson diagonalization with overlap
     ethr =  1.54E-06,  avg # of iterations =  1.3

     total cpu time spent up to now is     1481.4 secs

     total energy              =    -998.72786408 Ry
     Harris-Foulkes estimate   =    -998.72779128 Ry
     estimated scf accuracy    <       0.00095669 Ry

     total magnetization       =     2.04 Bohr mag/cell
     absolute magnetization    =     3.30 Bohr mag/cell

     iteration # 14     ecut=   140.00 Ry     beta= 0.70
     Davidson diagonalization with overlap
     ethr =  1.54E-06,  avg # of iterations =  1.0

     total cpu time spent up to now is     1575.9 secs

     total energy              =    -998.72781983 Ry
     Harris-Foulkes estimate   =    -998.72790937 Ry
     estimated scf accuracy    <       0.00033226 Ry

     total magnetization       =     2.03 Bohr mag/cell
     absolute magnetization    =     3.28 Bohr mag/cell

     iteration # 15     ecut=   140.00 Ry     beta= 0.70
     Davidson diagonalization with overlap
     ethr =  5.54E-07,  avg # of iterations =  4.0

     total cpu time spent up to now is     1685.8 secs

     total energy              =    -998.72807582 Ry
     Harris-Foulkes estimate   =    -998.72825954 Ry
     estimated scf accuracy    <       0.00191022 Ry

     total magnetization       =     2.02 Bohr mag/cell
     absolute magnetization    =     3.44 Bohr mag/cell

     iteration # 16     ecut=   140.00 Ry     beta= 0.70
     Davidson diagonalization with overlap
     ethr =  5.54E-07,  avg # of iterations =  3.0

     total cpu time spent up to now is     1768.9 secs

     total energy              =    -998.72812741 Ry
     Harris-Foulkes estimate   =    -998.72811972 Ry
     estimated scf accuracy    <       0.00030125 Ry

     total magnetization       =     2.02 Bohr mag/cell
     absolute magnetization    =     3.44 Bohr mag/cell

     iteration # 17     ecut=   140.00 Ry     beta= 0.70
     Davidson diagonalization with overlap
     ethr =  5.02E-07,  avg # of iterations =  1.0

     total cpu time spent up to now is     1846.9 secs

     total energy              =    -998.72810616 Ry
     Harris-Foulkes estimate   =    -998.72813015 Ry
     estimated scf accuracy    <       0.00027132 Ry

     total magnetization       =     2.02 Bohr mag/cell
     absolute magnetization    =     3.44 Bohr mag/cell

     iteration # 18     ecut=   140.00 Ry     beta= 0.70
     Davidson diagonalization with overlap
     ethr =  4.52E-07,  avg # of iterations =  2.5

     total cpu time spent up to now is     1926.6 secs

     total energy              =    -998.72812409 Ry
     Harris-Foulkes estimate   =    -998.72812370 Ry
     estimated scf accuracy    <       0.00001473 Ry

     total magnetization       =     2.02 Bohr mag/cell
     absolute magnetization    =     3.43 Bohr mag/cell

     iteration # 19     ecut=   140.00 Ry     beta= 0.70
     Davidson diagonalization with overlap
     ethr =  2.46E-08,  avg # of iterations =  3.2

     total cpu time spent up to now is     2013.2 secs

     total energy              =    -998.72812856 Ry
     Harris-Foulkes estimate   =    -998.72812733 Ry
     estimated scf accuracy    <       0.00000797 Ry

     total magnetization       =     2.02 Bohr mag/cell
     absolute magnetization    =     3.44 Bohr mag/cell

     iteration # 20     ecut=   140.00 Ry     beta= 0.70
     Davidson diagonalization with overlap
     ethr =  1.33E-08,  avg # of iterations =  4.1

     total cpu time spent up to now is     2110.3 secs

     total energy              =    -998.72812855 Ry
     Harris-Foulkes estimate   =    -998.72813147 Ry
     estimated scf accuracy    <       0.00001800 Ry

     total magnetization       =     2.02 Bohr mag/cell
     absolute magnetization    =     3.43 Bohr mag/cell

     iteration # 21     ecut=   140.00 Ry     beta= 0.70
     Davidson diagonalization with overlap
     ethr =  1.33E-08,  avg # of iterations =  1.0

     total cpu time spent up to now is     2196.7 secs

     total energy              =    -998.72812684 Ry
     Harris-Foulkes estimate   =    -998.72812886 Ry
     estimated scf accuracy    <       0.00000955 Ry

     total magnetization       =     2.02 Bohr mag/cell
     absolute magnetization    =     3.44 Bohr mag/cell

     iteration # 22     ecut=   140.00 Ry     beta= 0.70
     Davidson diagonalization with overlap
     ethr =  1.33E-08,  avg # of iterations =  4.0

     Magnetic moment per site:
     atom:    1    charge:   15.4522    magn:    0.6829    constr:    0.0000
     atom:    2    charge:   13.1059    magn:    1.9128    constr:    0.0000
     atom:    3    charge:   11.0667    magn:   -0.0140    constr:    0.0000
     atom:    4    charge:   13.1896    magn:   -0.5941    constr:    0.0000

     total cpu time spent up to now is     2292.0 secs

     End of self-consistent calculation

 ------ SPIN UP ------------


          k = 0.0000 0.0000 0.0000 (  6879 PWs)   bands (ev):

   -72.3529 -57.2538 -55.4496 -35.6800 -35.6800 -35.6800 -26.0608 -26.0608
   -26.0608 -24.2892 -24.2892 -24.2892   8.3791   8.3791   8.3800   8.3800
     8.3800  11.2056  18.4129  18.4129  18.7409  18.7409  18.7409  20.1446
    20.1446  20.1446  22.5902  22.5902  23.3588  23.3588  23.3588  24.1650
    24.1650  30.2585  30.2585  30.2585

          k =-0.1667 0.1667-0.1667 (  6970 PWs)   bands (ev):

   -72.3529 -57.2523 -55.4513 -35.6802 -35.6802 -35.6802 -26.0637 -26.0637
   -26.0614 -24.2915 -24.2861 -24.2861   8.3730   8.3817   8.3817   8.3978
     8.3978  11.6833  18.1416  18.1416  18.4452  19.2794  19.2794  20.0700
    20.1023  20.1023  22.5165  22.5165  22.6733  23.0992  23.0992  24.1311
    24.1311  28.1262  29.9408  29.9408

          k =-0.3333 0.3333-0.3333 (  6964 PWs)   bands (ev):

   -72.3527 -57.2494 -55.4549 -35.6807 -35.6807 -35.6805 -26.0696 -26.0696
   -26.0631 -24.2954 -24.2801 -24.2801   8.3592   8.3874   8.3874   8.4328
     8.4328  12.9933  17.3910  18.0805  18.0805  19.6000  19.6000  19.6977
    20.3944  20.3944  22.0587  22.0587  22.0851  22.9577  22.9577  23.9232
    23.9232  25.4831  29.6589  29.6589

          k = 0.5000-0.5000 0.5000 (  6958 PWs)   bands (ev):

   -72.3527 -57.2479 -55.4566 -35.6809 -35.6809 -35.6806 -26.0725 -26.0725
   -26.0642 -24.2970 -24.2770 -24.2770   8.3537   8.3903   8.3903   8.4501
     8.4501  14.2866  16.0353  18.1246  18.1246  19.5743  19.5743  19.6788
    20.7453  20.7453  21.6858  21.6858  22.0981  23.0580  23.0580  23.7125
    23.7125  24.2104  29.6595  29.6595

          k = 0.0000 0.3333 0.0000 (  7015 PWs)   bands (ev):

   -72.3528 -57.2518 -55.4519 -35.6807 -35.6807 -35.6796 -26.0672 -26.0672
   -26.0563 -24.2982 -24.2821 -24.2821   8.3599   8.3904   8.3904   8.3950
     8.4013  11.8370  17.4732  18.6620  19.0118  19.0118  19.3065  19.7431
    20.2847  20.2847  22.3687  22.6222  22.7646  22.7646  22.9894  24.0615
    24.1339  28.5031  28.5031  28.5672

          k =-0.1667 0.5000-0.1667 (  7005 PWs)   bands (ev):

   -72.3527 -57.2494 -55.4548 -35.6815 -35.6812 -35.6794 -26.0763 -26.0733
   -26.0519 -24.3044 -24.2756 -24.2754   8.3477   8.3923   8.3966   8.4111
     8.4313  12.8462  17.0456  18.6384  18.6813  19.4254  19.4613  19.9064
    20.1639  20.5695  21.8720  22.0388  22.5271  22.5899  22.8990  23.8914
    24.0205  26.1292  27.4750  27.6301

          k = 0.6667-0.3333 0.6667 (  7010 PWs)   bands (ev):

   -72.3526 -57.2475 -55.4572 -35.6824 -35.6814 -35.6792 -26.0862 -26.0759
   -26.0484 -24.3067 -24.2731 -24.2696   8.3516   8.3855   8.3984   8.4283
     8.4529  14.2110  16.5150  17.9473  18.4816  19.4663  19.5455  19.8356
    20.6033  20.8439  21.5744  21.6960  22.2602  22.8199  22.8961  23.7431
    23.7761  24.3445  27.0004  27.3034

          k = 0.5000-0.1667 0.5000 (  7014 PWs)   bands (ev):

   -72.3527 -57.2479 -55.4566 -35.6825 -35.6810 -35.6793 -26.0863 -26.0724
   -26.0497 -24.3044 -24.2771 -24.2695   8.3605   8.3818   8.3941   8.4302
     8.4451  13.7983  16.8973  18.1234  18.2628  19.3600  19.5987  19.8162
    20.5277  20.8289  21.3790  21.9912  22.1855  22.7274  22.8385  23.7357
    24.0901  24.8533  26.8306  28.0746

          k = 0.3333 0.0000 0.3333 (  6985 PWs)   bands (ev):

   -72.3528 -57.2504 -55.4537 -35.6814 -35.6804 -35.6797 -26.0754 -26.0663
   -26.0556 -24.2980 -24.2836 -24.2766   8.3650   8.3858   8.3862   8.4153
     8.4174  12.4329  17.6381  17.9092  19.0516  19.1906  19.7081  19.7922
    19.9382  20.4000  21.9676  22.3883  22.4738  22.6677  22.9326  23.9285
    24.2163  27.2455  27.2715  29.4275

          k = 0.0000 0.6667 0.0000 (  6995 PWs)   bands (ev):

   -72.3527 -57.2479 -55.4566 -35.6820 -35.6820 -35.6794 -26.0798 -26.0798
   -26.0473 -24.3143 -24.2683 -24.2683   8.3178   8.3896   8.4100   8.4100
     8.4453  13.4424  16.5389  18.8447  19.3507  19.5519  19.5519  19.6104
    20.7868  20.7868  21.6921  21.9269  21.9269  22.6402  22.7695  23.6695
    23.8913  25.7945  25.7945  25.8337

          k = 0.8333-0.1667 0.8333 (  6973 PWs)   bands (ev):

   -72.3526 -57.2465 -55.4584 -35.6829 -35.6822 -35.6790 -26.0894 -26.0826
   -26.0412 -24.3176 -24.2653 -24.2631   8.3165   8.3871   8.4071   8.4130
     8.4613  14.3348  16.6280  18.1963  19.2918  19.4073  19.6621  20.0102
    20.6250  20.6660  21.7145  21.7867  22.1929  22.5635  22.7385  23.4114
    23.8833  24.4298  25.1248  25.1786

          k = 0.6667-0.0000 0.6667 (  7005 PWs)   bands (ev):

   -72.3526 -57.2465 -55.4584 -35.6835 -35.6817 -35.6787 -26.0956 -26.0789
   -26.0394 -24.3141 -24.2697 -24.2623   8.3464   8.3841   8.4065   8.4079
     8.4594  14.5453  17.1924  17.5130  18.7387  19.1262  19.5429  20.2152
    20.6691  20.7283  21.4489  21.8386  22.3795  22.4427  22.5350  23.6111
    24.1822  24.4706  25.0160  25.9378

          k = 0.0000-1.0000 0.0000 (  7046 PWs)   bands (ev):

   -72.3526 -57.2460 -55.4589 -35.6826 -35.6826 -35.6795 -26.0860 -26.0860
   -26.0427 -24.3214 -24.2615 -24.2615   8.2948   8.3698   8.4190   8.4190
     8.4672  14.4813  16.5269  18.4018  19.1497  19.8309  19.8309  20.0172
    20.8896  20.8896  21.0113  22.2239  22.2239  22.6105  22.7689  23.1171
    23.8231  24.1832  24.1832  24.8772

          k = 0.6667-0.3333 1.0000 (  6979 PWs)   bands (ev):

   -72.3526 -57.2475 -55.4572 -35.6828 -35.6816 -35.6790 -26.0882 -26.0778
   -26.0436 -24.3115 -24.2716 -24.2662   8.3422   8.3875   8.4032   8.4127
     8.4501  13.8682  16.8014  18.3763  18.6649  19.2434  19.8295  20.0677
    20.1832  20.9402  21.3123  21.9662  22.2982  22.5123  22.7590  23.7650
    24.0094  25.2889  25.4862  26.3068

          k = 0.5000-0.1667 0.8333 (  6972 PWs)   bands (ev):

   -72.3526 -57.2465 -55.4584 -35.6834 -35.6818 -35.6787 -26.0939 -26.0811
   -26.0388 -24.3142 -24.2687 -24.2632   8.3556   8.3700   8.4036   8.4156
     8.4597  14.5649  16.9660  17.6557  18.7759  19.1999  19.7734  19.9969
    20.4085  20.9221  21.4690  21.8867  22.2831  22.4871  22.7575  23.5812
    23.9360  24.3231  25.3134  25.6298

          k =-0.3333-1.0000 0.0000 (  6990 PWs)   bands (ev):

   -72.3526 -57.2460 -55.4589 -35.6834 -35.6823 -35.6787 -26.0924 -26.0862
   -26.0368 -24.3187 -24.2640 -24.2617   8.3269   8.3868   8.3902   8.4204
     8.4651  14.6326  16.9502  17.8949  19.0583  19.4575  19.7550  19.9338
    20.4486  20.7585  21.5975  22.0709  22.2299  22.4293  22.8123  23.2734
    23.8404  24.3959  24.4093  24.8685

 ------ SPIN DOWN ----------


          k = 0.0000 0.0000 0.0000 (  6879 PWs)   bands (ev):

   -71.4319 -56.1503 -54.9336 -34.7991 -34.7991 -34.7991 -25.0140 -25.0140
   -25.0140 -23.7646 -23.7646 -23.7646   8.3682   8.3682   8.3682   8.3862
     8.3862  11.2527  18.8456  18.8456  18.8456  19.1037  19.1037  21.0898
    21.0898  21.0898  23.5619  23.5619  23.5619  23.8647  23.8647  24.9550
    24.9550  30.2630  30.2630  30.2630

          k =-0.1667 0.1667-0.1667 (  6970 PWs)   bands (ev):

   -71.4319 -56.1478 -54.9365 -34.7994 -34.7994 -34.7993 -25.0191 -25.0191
   -25.0150 -23.7667 -23.7594 -23.7594   8.3613   8.3711   8.3711   8.4022
     8.4022  11.7287  18.5456  18.6335  18.6335  19.6164  19.6164  20.9851
    20.9851  21.0432  22.7561  23.0510  23.0510  24.1010  24.1010  24.8715
    24.8715  28.5174  30.1467  30.1467

          k =-0.3333 0.3333-0.3333 (  6964 PWs)   bands (ev):

   -71.4317 -56.1426 -54.9423 -34.7998 -34.7998 -34.7996 -25.0292 -25.0292
   -25.0179 -23.7697 -23.7491 -23.7491   8.3473   8.3766   8.3766   8.4342
     8.4342  13.0296  17.5016  18.6645  18.6645  20.1674  20.1674  20.4720
    20.9006  20.9006  22.2058  22.3098  22.3098  24.1514  24.1514  24.7787
    24.7787  26.0756  30.0620  30.0620

          k = 0.5000-0.5000 0.5000 (  6958 PWs)   bands (ev):

   -71.4317 -56.1400 -54.9452 -34.8000 -34.8000 -34.7998 -25.0342 -25.0342
   -25.0198 -23.7708 -23.7440 -23.7440   8.3415   8.3794   8.3794   8.4501
     8.4501  14.2805  16.2041  18.7624  18.7624  20.2853  20.2853  20.3227
    21.0162  21.0162  21.9131  21.9131  22.2151  24.1242  24.1242  24.7445
    24.7445  24.9115  30.2451  30.2451

          k = 0.0000 0.3333 0.0000 (  7015 PWs)   bands (ev):

   -71.4319 -56.1469 -54.9375 -34.7998 -34.7998 -34.7988 -25.0248 -25.0248
   -25.0068 -23.7766 -23.7532 -23.7532   8.3483   8.3785   8.3785   8.3993
     8.4079  11.8822  17.8761  19.1549  19.1549  19.3354  19.6969  20.5967
    21.2028  21.2028  22.8908  22.9022  22.9022  23.8426  24.2011  24.6464
    24.9606  28.7197  28.8806  28.8806

          k =-0.1667 0.5000-0.1667 (  7005 PWs)   bands (ev):

   -71.4317 -56.1426 -54.9423 -34.8007 -34.8004 -34.7986 -25.0380 -25.0350
   -25.0013 -23.7843 -23.7426 -23.7423   8.3360   8.3809   8.3855   8.4131
     8.4353  12.8892  17.3918  18.9911  19.1775  19.8949  20.0571  20.2776
    21.0258  21.2883  22.1074  22.2091  22.7108  23.9220  24.2779  24.4290
    24.8718  26.6521  27.8818  27.9561

          k = 0.6667-0.3333 0.6667 (  7010 PWs)   bands (ev):

   -71.4316 -56.1391 -54.9462 -34.8016 -34.8005 -34.7984 -25.0513 -25.0396
   -24.9985 -23.7858 -23.7381 -23.7334   8.3397   8.3741   8.3871   8.4296
     8.4545  14.2475  16.6934  18.4288  19.1131  19.9777  20.1645  20.5305
    21.0575  21.3036  21.7334  21.8470  22.4388  24.0906  24.1892  24.5528
    24.6566  24.9868  27.4106  27.6984

          k = 0.5000-0.1667 0.5000 (  7014 PWs)   bands (ev):

   -71.4317 -56.1400 -54.9453 -34.8016 -34.8001 -34.7985 -25.0512 -25.0341
   -25.0008 -23.7823 -23.7441 -23.7335   8.3484   8.3709   8.3823   8.4325
     8.4461  13.8345  17.1094  18.6624  18.7429  19.8492  20.3002  20.4957
    20.9155  21.3602  21.7347  22.0289  22.3207  24.0709  24.2955  24.4781
    24.8095  25.4492  27.2569  28.4933

          k = 0.3333 0.0000 0.3333 (  6985 PWs)   bands (ev):

   -71.4318 -56.1444 -54.9404 -34.8006 -34.7995 -34.7989 -25.0360 -25.0239
   -25.0080 -23.7748 -23.7548 -23.7447   8.3533   8.3743   8.3753   8.4189
     8.4203  12.4753  17.9215  18.4656  19.2818  19.5905  20.2157  20.5567
    20.6361  21.2828  22.2894  22.4700  22.6378  23.9218  24.4108  24.6387
    24.8664  27.6764  27.7482  29.7341

          k = 0.0000 0.6667 0.0000 (  6995 PWs)   bands (ev):

   -71.4317 -56.1400 -54.9453 -34.8011 -34.8011 -34.7986 -25.0455 -25.0455
   -24.9910 -23.7998 -23.7312 -23.7312   8.3063   8.3927   8.3979   8.3979
     8.4511  13.5019  16.8524  19.4468  19.9095  19.9095  19.9196  19.9356
    21.5011  21.5011  21.9485  21.9485  22.7818  23.7124  23.9854  24.0727
    24.8855  26.1993  26.2891  26.2891

          k = 0.8333-0.1667 0.8333 (  6973 PWs)   bands (ev):

   -71.4316 -56.1374 -54.9482 -34.8021 -34.8013 -34.7983 -25.0574 -25.0503
   -24.9842 -23.8041 -23.7263 -23.7235   8.3050   8.3883   8.3976   8.4010
     8.4656  14.4489  16.7953  18.6144  19.6097  20.0008  20.1801  20.6245
    21.1113  21.1595  21.9268  21.9504  22.7714  23.7810  23.9861  24.2426
    24.7430  25.0407  25.5075  25.5587

          k = 0.6667-0.0000 0.6667 (  7005 PWs)   bands (ev):

   -71.4316 -56.1374 -54.9482 -34.8027 -34.8008 -34.7979 -25.0638 -25.0446
   -24.9856 -23.7971 -23.7327 -23.7230   8.3345   8.3725   8.3943   8.4112
     8.4617  14.6397  17.4065  17.7353  19.3832  19.5183  20.1486  20.9224
    21.1481  21.3627  21.6098  21.9718  22.2916  24.0527  24.0596  24.4243
    24.8595  25.1445  25.3693  26.3204

          k = 0.0000-1.0000 0.0000 (  7046 PWs)   bands (ev):

   -71.4316 -56.1365 -54.9492 -34.8018 -34.8018 -34.7988 -25.0555 -25.0555
   -24.9823 -23.8112 -23.7205 -23.7205   8.2836   8.3742   8.4070   8.4070
     8.4725  14.6653  16.5673  18.9510  19.4091  20.3260  20.6025  20.6025
    20.8956  20.8956  22.3766  22.3766  22.8999  23.3259  23.8574  23.8885
    24.7648  24.8348  24.8348  25.1544

          k = 0.6667-0.3333 1.0000 (  6979 PWs)   bands (ev):

   -71.4316 -56.1391 -54.9462 -34.8020 -34.8007 -34.7982 -25.0543 -25.0425
   -24.9905 -23.7938 -23.7361 -23.7284   8.3304   8.3762   8.3938   8.4126
     8.4534  13.9252  17.0933  18.7016  19.2168  19.7319  20.4503  20.5396
    20.6891  21.6080  21.7143  21.9056  22.5390  24.0531  24.1092  24.4050
    24.7480  25.7866  26.0126  26.6837

          k = 0.5000-0.1667 0.8333 (  6972 PWs)   bands (ev):

   -71.4316 -56.1374 -54.9482 -34.8026 -34.8009 -34.7979 -25.0612 -25.0479
   -24.9849 -23.7972 -23.7318 -23.7238   8.3435   8.3585   8.3971   8.4136
     8.4619  14.6597  17.1313  17.9668  19.3962  19.6373  20.4230  20.4983
    20.9944  21.4740  21.7338  21.8526  22.4500  24.0495  24.3016  24.3891
    24.5485  24.9372  25.8041  25.9108

          k =-0.3333-1.0000 0.0000 (  6990 PWs)   bands (ev):

   -71.4316 -56.1365 -54.9492 -34.8027 -34.8014 -34.7979 -25.0580 -25.0575
   -24.9798 -23.8051 -23.7253 -23.7207   8.3151   8.3781   8.3899   8.4096
     8.4686  14.7896  17.0370  18.2464  19.3389  20.1511  20.2617  20.7057
    20.8738  21.1357  21.6681  22.3205  22.6165  23.9555  24.2006  24.4108
    24.5715  24.7531  24.9350  25.0516

     the Fermi energy is    23.1791 ev

!    total energy              =    -998.72812831 Ry
     Harris-Foulkes estimate   =    -998.72812833 Ry
     estimated scf accuracy    <       0.00000019 Ry

     The total energy is the sum of the following terms:

     one-electron contribution =    -323.08306829 Ry
     hartree contribution      =     219.60515480 Ry
     xc contribution           =    -125.12153423 Ry
     ewald contribution        =    -658.08836179 Ry
     one-center paw contrib.   =    -112.04090291 Ry
     smearing contrib. (-TS)   =       0.00058412 Ry

     total magnetization       =     2.02 Bohr mag/cell
     absolute magnetization    =     3.44 Bohr mag/cell

     convergence has been achieved in  22 iterations

     Forces acting on atoms (cartesian axes, Ry/au):

     atom    1 type  2   force =     0.00000000    0.00000000    0.00000000
     atom    2 type  1   force =     0.00000000    0.00000000   -0.00000000
     atom    3 type  3   force =     0.00000000   -0.00000000    0.00000000
     atom    4 type  1   force =     0.00000000    0.00000000    0.00000000

     Total force =     0.000000     Total SCF correction =     0.000000


     Computing stress (Cartesian axis) and pressure

          total   stress  (Ry/bohr**3)                   (kbar)     P=  797.44
   0.00542089  -0.00000000   0.00000000        797.44     -0.00      0.00
  -0.00000000   0.00542089   0.00000000         -0.00    797.44      0.00
   0.00000000   0.00000000   0.00542089          0.00      0.00    797.44


     BFGS Geometry Optimization

     number of scf cycles    =   1
     number of bfgs steps    =   0

     enthalpy new            =    -998.7281283083 Ry

     new trust radius        =       0.4285589907 bohr
     new conv_thr            =       0.0000010000 Ry

     new unit-cell volume =    366.03866 a.u.^3 (    54.24133 Ang^3 )
     density =      7.30240 g/cm^3

CELL_PARAMETERS (alat= 10.00000000)
  -0.567761127   0.000000000   0.567761127
   0.000000000   0.567761127   0.567761127
  -0.567761127   0.567761127   0.000000000

ATOMIC_POSITIONS (alat)
Co       0.567761127   0.567761127   0.567761127
Mn       0.283880563   0.283880563   0.283880563
Ga       0.851641690   0.851641690   0.851641690
Mn       0.000000000   0.000000000   0.000000000



     Writing output data file Mn2CoGa.save/
     NEW-OLD atomic charge density approx. for the potential

     Check: negative core charge=   -0.000011
     extrapolated charge   78.38571, renormalised to   60.00000

     total cpu time spent up to now is     2462.3 secs

     Self-consistent Calculation

     iteration #  1     ecut=   140.00 Ry     beta= 0.70
     Davidson diagonalization with overlap
     ethr =  1.00E-06,  avg # of iterations = 12.7

     total cpu time spent up to now is     2700.7 secs

     total energy              =    -871.71064752 Ry
     Harris-Foulkes estimate   =    -909.63785904 Ry
     estimated scf accuracy    <      99.57753573 Ry

     total magnetization       =     0.23 Bohr mag/cell
     absolute magnetization    =     0.54 Bohr mag/cell

     iteration #  2     ecut=   140.00 Ry     beta= 0.70
     Davidson diagonalization with overlap
     ethr =  1.00E-02,  avg # of iterations =  7.3

     total cpu time spent up to now is     2858.8 secs

     total energy              =   -1019.93438048 Ry
     Harris-Foulkes estimate   =   -1113.01992251 Ry
     estimated scf accuracy    <     310.22041808 Ry

     total magnetization       =     4.00 Bohr mag/cell
     absolute magnetization    =     4.09 Bohr mag/cell

     iteration #  3     ecut=   140.00 Ry     beta= 0.70
     Davidson diagonalization with overlap
     ethr =  1.00E-02,  avg # of iterations =  5.2

     total cpu time spent up to now is     2967.1 secs

     total energy              =   -1018.38607967 Ry
     Harris-Foulkes estimate   =   -1044.00981047 Ry
     estimated scf accuracy    <     129.68508890 Ry

     total magnetization       =     0.11 Bohr mag/cell
     absolute magnetization    =     0.23 Bohr mag/cell

     iteration #  4     ecut=   140.00 Ry     beta= 0.70
     Davidson diagonalization with overlap
     ethr =  1.00E-02,  avg # of iterations =  4.1

     total cpu time spent up to now is     3092.4 secs

     total energy              =   -1008.00432861 Ry
     Harris-Foulkes estimate   =   -1025.72203001 Ry
     estimated scf accuracy    <      94.58780781 Ry

     total magnetization       =     0.14 Bohr mag/cell
     absolute magnetization    =     0.22 Bohr mag/cell

     iteration #  5     ecut=   140.00 Ry     beta= 0.70
     Davidson diagonalization with overlap
     ethr =  1.00E-02,  avg # of iterations =  3.0

     total cpu time spent up to now is     3178.5 secs

     total energy              =   -1004.94638050 Ry
     Harris-Foulkes estimate   =   -1013.27436120 Ry
     estimated scf accuracy    <      56.37579388 Ry

     total magnetization       =    -2.01 Bohr mag/cell
     absolute magnetization    =     2.06 Bohr mag/cell

     iteration #  6     ecut=   140.00 Ry     beta= 0.70
     Davidson diagonalization with overlap
     ethr =  1.00E-02,  avg # of iterations =  2.0

     total cpu time spent up to now is     3261.1 secs

     total energy              =   -1000.81840985 Ry
     Harris-Foulkes estimate   =   -1005.68951384 Ry
     estimated scf accuracy    <      27.03666059 Ry

     total magnetization       =    -1.68 Bohr mag/cell
     absolute magnetization    =     2.57 Bohr mag/cell

     iteration #  7     ecut=   140.00 Ry     beta= 0.70
     Davidson diagonalization with overlap
     ethr =  1.00E-02,  avg # of iterations =  2.1

     total cpu time spent up to now is     3340.0 secs

     total energy              =   -1000.74737315 Ry
     Harris-Foulkes estimate   =   -1002.51486408 Ry
     estimated scf accuracy    <      38.11366366 Ry

     total magnetization       =     0.36 Bohr mag/cell
     absolute magnetization    =     0.71 Bohr mag/cell

     iteration #  8     ecut=   140.00 Ry     beta= 0.70
     Davidson diagonalization with overlap
     ethr =  1.00E-02,  avg # of iterations =  1.4

     total cpu time spent up to now is     3415.7 secs

     total energy              =   -1000.61375240 Ry
     Harris-Foulkes estimate   =   -1002.36446321 Ry
     estimated scf accuracy    <      17.24176820 Ry

     total magnetization       =     0.34 Bohr mag/cell
     absolute magnetization    =     2.07 Bohr mag/cell

     iteration #  9     ecut=   140.00 Ry     beta= 0.70
     Davidson diagonalization with overlap
     ethr =  1.00E-02,  avg # of iterations =  1.0

     total cpu time spent up to now is     3507.2 secs

     total energy              =    -999.75134851 Ry
     Harris-Foulkes estimate   =   -1001.07119754 Ry
     estimated scf accuracy    <      14.79694682 Ry

     total magnetization       =    -1.07 Bohr mag/cell
     absolute magnetization    =     2.39 Bohr mag/cell

     iteration # 10     ecut=   140.00 Ry     beta= 0.70
     Davidson diagonalization with overlap
     ethr =  1.00E-02,  avg # of iterations =  1.0

     total cpu time spent up to now is     3596.4 secs

     total energy              =    -997.09595337 Ry
     Harris-Foulkes estimate   =    -999.93844331 Ry
     estimated scf accuracy    <       4.83430021 Ry

     total magnetization       =     0.84 Bohr mag/cell
     absolute magnetization    =     3.60 Bohr mag/cell

     iteration # 11     ecut=   140.00 Ry     beta= 0.70
     Davidson diagonalization with overlap
     ethr =  8.06E-03,  avg # of iterations =  3.1

     total cpu time spent up to now is     3686.8 secs

     total energy              =    -999.72583501 Ry
     Harris-Foulkes estimate   =   -1000.16235520 Ry
     estimated scf accuracy    <      34.25281974 Ry

     total magnetization       =     0.42 Bohr mag/cell
     absolute magnetization    =     1.15 Bohr mag/cell

     iteration # 12     ecut=   140.00 Ry     beta= 0.70
     Davidson diagonalization with overlap
     ethr =  8.06E-03,  avg # of iterations =  1.1

     total cpu time spent up to now is     3776.6 secs

     total energy              =    -999.26280924 Ry
     Harris-Foulkes estimate   =    -999.80042902 Ry
     estimated scf accuracy    <      28.69127781 Ry

     total magnetization       =    -0.17 Bohr mag/cell
     absolute magnetization    =     1.29 Bohr mag/cell

     iteration # 13     ecut=   140.00 Ry     beta= 0.70
     Davidson diagonalization with overlap
     ethr =  8.06E-03,  avg # of iterations =  1.0

     total cpu time spent up to now is     3858.2 secs

     total energy              =    -998.14715140 Ry
     Harris-Foulkes estimate   =    -999.37984656 Ry
     estimated scf accuracy    <      20.57181776 Ry

     total magnetization       =    -1.31 Bohr mag/cell
     absolute magnetization    =     1.66 Bohr mag/cell

     iteration # 14     ecut=   140.00 Ry     beta= 0.70
     Davidson diagonalization with overlap
     ethr =  8.06E-03,  avg # of iterations =  2.1

     total cpu time spent up to now is     3946.5 secs

     total energy              =    -998.70218276 Ry
     Harris-Foulkes estimate   =    -998.74286065 Ry
     estimated scf accuracy    <       1.84322737 Ry

     total magnetization       =     0.30 Bohr mag/cell
     absolute magnetization    =     3.67 Bohr mag/cell

     iteration # 15     ecut=   140.00 Ry     beta= 0.70
     Davidson diagonalization with overlap
     ethr =  3.07E-03,  avg # of iterations =  4.1

     total cpu time spent up to now is     4039.9 secs

     total energy              =    -998.85070891 Ry
     Harris-Foulkes estimate   =    -998.98264314 Ry
     estimated scf accuracy    <       4.11897291 Ry

     total magnetization       =    -0.70 Bohr mag/cell
     absolute magnetization    =     2.86 Bohr mag/cell

     iteration # 16     ecut=   140.00 Ry     beta= 0.70
     Davidson diagonalization with overlap
     ethr =  3.07E-03,  avg # of iterations =  1.0

     total cpu time spent up to now is     4117.8 secs

     total energy              =    -998.79450324 Ry
     Harris-Foulkes estimate   =    -998.86551091 Ry
     estimated scf accuracy    <       3.80254206 Ry

     total magnetization       =    -0.61 Bohr mag/cell
     absolute magnetization    =     2.78 Bohr mag/cell

     iteration # 17     ecut=   140.00 Ry     beta= 0.70
     Davidson diagonalization with overlap
     ethr =  3.07E-03,  avg # of iterations =  1.0

     total cpu time spent up to now is     4193.8 secs

     total energy              =    -998.65815001 Ry
     Harris-Foulkes estimate   =    -998.82067629 Ry
     estimated scf accuracy    <       2.38733715 Ry

     total magnetization       =    -0.43 Bohr mag/cell
     absolute magnetization    =     2.88 Bohr mag/cell

     iteration # 18     ecut=   140.00 Ry     beta= 0.70
     Davidson diagonalization with overlap
     ethr =  3.07E-03,  avg # of iterations =  1.0

     total cpu time spent up to now is     4270.8 secs

     total energy              =    -998.77006140 Ry
     Harris-Foulkes estimate   =    -998.77830706 Ry
     estimated scf accuracy    <       0.44871098 Ry

     total magnetization       =     0.97 Bohr mag/cell
     absolute magnetization    =     3.40 Bohr mag/cell

     iteration # 19     ecut=   140.00 Ry     beta= 0.70
     Davidson diagonalization with overlap
     ethr =  7.48E-04,  avg # of iterations =  1.2

     total cpu time spent up to now is     4343.4 secs

     total energy              =    -998.76186613 Ry
     Harris-Foulkes estimate   =    -998.78540380 Ry
     estimated scf accuracy    <       0.13653590 Ry

     total magnetization       =     1.60 Bohr mag/cell
     absolute magnetization    =     4.21 Bohr mag/cell

     iteration # 20     ecut=   140.00 Ry     beta= 0.70
     Davidson diagonalization with overlap
     ethr =  2.28E-04,  avg # of iterations =  4.5

     total cpu time spent up to now is     4435.2 secs

     total energy              =    -998.71347366 Ry
     Harris-Foulkes estimate   =    -998.77995045 Ry
     estimated scf accuracy    <       0.20785446 Ry

     total magnetization       =     0.98 Bohr mag/cell
     absolute magnetization    =     3.56 Bohr mag/cell

     iteration # 21     ecut=   140.00 Ry     beta= 0.70
     Davidson diagonalization with overlap
     ethr =  2.28E-04,  avg # of iterations =  1.3

     total cpu time spent up to now is     4515.2 secs

     total energy              =    -998.74613495 Ry
     Harris-Foulkes estimate   =    -998.76443691 Ry
     estimated scf accuracy    <       0.13285242 Ry

     total magnetization       =    -2.01 Bohr mag/cell
     absolute magnetization    =     2.26 Bohr mag/cell

     iteration # 22     ecut=   140.00 Ry     beta= 0.70
     Davidson diagonalization with overlap
     ethr =  2.21E-04,  avg # of iterations =  1.0

     total cpu time spent up to now is     4613.9 secs

     total energy              =    -998.74891938 Ry
     Harris-Foulkes estimate   =    -998.75322203 Ry
     estimated scf accuracy    <       0.01858869 Ry

     total magnetization       =    -1.37 Bohr mag/cell
     absolute magnetization    =     2.06 Bohr mag/cell

     iteration # 23     ecut=   140.00 Ry     beta= 0.70
     Davidson diagonalization with overlap
     ethr =  3.10E-05,  avg # of iterations =  4.0

     total cpu time spent up to now is     4708.2 secs

     total energy              =    -998.75196459 Ry
     Harris-Foulkes estimate   =    -998.75280168 Ry
     estimated scf accuracy    <       0.00267165 Ry

     total magnetization       =    -0.97 Bohr mag/cell
     absolute magnetization    =     2.32 Bohr mag/cell

     iteration # 24     ecut=   140.00 Ry     beta= 0.70
     Davidson diagonalization with overlap
     ethr =  4.45E-06,  avg # of iterations =  3.4

     total cpu time spent up to now is     4801.4 secs

     total energy              =    -998.75321813 Ry
     Harris-Foulkes estimate   =    -998.75314973 Ry
     estimated scf accuracy    <       0.00339717 Ry

     total magnetization       =    -1.48 Bohr mag/cell
     absolute magnetization    =     2.49 Bohr mag/cell

     iteration # 25     ecut=   140.00 Ry     beta= 0.70
     Davidson diagonalization with overlap
     ethr =  4.45E-06,  avg # of iterations =  1.0

     total cpu time spent up to now is     4882.8 secs

     total energy              =    -998.74898858 Ry
     Harris-Foulkes estimate   =    -998.75327888 Ry
     estimated scf accuracy    <       0.00298727 Ry

     total magnetization       =    -1.42 Bohr mag/cell
     absolute magnetization    =     2.55 Bohr mag/cell

     iteration # 26     ecut=   140.00 Ry     beta= 0.70
     Davidson diagonalization with overlap
     ethr =  4.45E-06,  avg # of iterations =  2.7

     total cpu time spent up to now is     4961.3 secs

     total energy              =    -998.75138045 Ry
     Harris-Foulkes estimate   =    -998.75222432 Ry
     estimated scf accuracy    <       0.00435565 Ry

     total magnetization       =    -0.69 Bohr mag/cell
     absolute magnetization    =     1.91 Bohr mag/cell

     iteration # 27     ecut=   140.00 Ry     beta= 0.70
     Davidson diagonalization with overlap
     ethr =  4.45E-06,  avg # of iterations =  1.1

     total cpu time spent up to now is     5034.3 secs

     total energy              =    -998.75169642 Ry
     Harris-Foulkes estimate   =    -998.75180075 Ry
     estimated scf accuracy    <       0.00134002 Ry

     total magnetization       =    -0.83 Bohr mag/cell
     absolute magnetization    =     1.73 Bohr mag/cell

     iteration # 28     ecut=   140.00 Ry     beta= 0.70
     Davidson diagonalization with overlap
     ethr =  2.23E-06,  avg # of iterations =  1.2

     total cpu time spent up to now is     5107.2 secs

     total energy              =    -998.75175810 Ry
     Harris-Foulkes estimate   =    -998.75183209 Ry
     estimated scf accuracy    <       0.00057504 Ry

     total magnetization       =    -0.95 Bohr mag/cell
     absolute magnetization    =     1.70 Bohr mag/cell

     iteration # 29     ecut=   140.00 Ry     beta= 0.70
     Davidson diagonalization with overlap
     ethr =  9.58E-07,  avg # of iterations =  2.3

     total cpu time spent up to now is     5181.7 secs

     total energy              =    -998.75142809 Ry
     Harris-Foulkes estimate   =    -998.75183116 Ry
     estimated scf accuracy    <       0.00105691 Ry

     total magnetization       =    -1.03 Bohr mag/cell
     absolute magnetization    =     1.68 Bohr mag/cell

     iteration # 30     ecut=   140.00 Ry     beta= 0.70
     Davidson diagonalization with overlap
     ethr =  9.58E-07,  avg # of iterations =  1.7

     total cpu time spent up to now is     5255.2 secs

     total energy              =    -998.75104626 Ry
     Harris-Foulkes estimate   =    -998.75160407 Ry
     estimated scf accuracy    <       0.00033598 Ry

     total magnetization       =    -0.88 Bohr mag/cell
     absolute magnetization    =     1.63 Bohr mag/cell

     iteration # 31     ecut=   140.00 Ry     beta= 0.70
     Davidson diagonalization with overlap
     ethr =  5.60E-07,  avg # of iterations =  4.2

     total cpu time spent up to now is     5346.0 secs

     total energy              =    -998.75105749 Ry
     Harris-Foulkes estimate   =    -998.75143714 Ry
     estimated scf accuracy    <       0.00036769 Ry

     total magnetization       =    -0.75 Bohr mag/cell
     absolute magnetization    =     1.46 Bohr mag/cell

     iteration # 32     ecut=   140.00 Ry     beta= 0.70
     Davidson diagonalization with overlap
     ethr =  5.60E-07,  avg # of iterations =  3.3

     total cpu time spent up to now is     5441.2 secs

     total energy              =    -998.75112544 Ry
     Harris-Foulkes estimate   =    -998.75136608 Ry
     estimated scf accuracy    <       0.00006790 Ry

     total magnetization       =    -0.62 Bohr mag/cell
     absolute magnetization    =     1.29 Bohr mag/cell

     iteration # 33     ecut=   140.00 Ry     beta= 0.70
     Davidson diagonalization with overlap
     ethr =  1.13E-07,  avg # of iterations =  4.7

     total cpu time spent up to now is     5541.4 secs

     total energy              =    -998.75133800 Ry
     Harris-Foulkes estimate   =    -998.75136859 Ry
     estimated scf accuracy    <       0.00001453 Ry

     total magnetization       =    -0.51 Bohr mag/cell
     absolute magnetization    =     1.14 Bohr mag/cell

     iteration # 34     ecut=   140.00 Ry     beta= 0.70
     Davidson diagonalization with overlap
     ethr =  2.42E-08,  avg # of iterations =  3.2

     total cpu time spent up to now is     5632.3 secs

     total energy              =    -998.75136075 Ry
     Harris-Foulkes estimate   =    -998.75136822 Ry
     estimated scf accuracy    <       0.00004079 Ry

     total magnetization       =    -0.52 Bohr mag/cell
     absolute magnetization    =     1.19 Bohr mag/cell

     iteration # 35     ecut=   140.00 Ry     beta= 0.70
     Davidson diagonalization with overlap
     ethr =  2.42E-08,  avg # of iterations =  2.0

     total cpu time spent up to now is     5709.3 secs

     total energy              =    -998.75135884 Ry
     Harris-Foulkes estimate   =    -998.75136938 Ry
     estimated scf accuracy    <       0.00005760 Ry

     total magnetization       =    -0.53 Bohr mag/cell
     absolute magnetization    =     1.19 Bohr mag/cell

     iteration # 36     ecut=   140.00 Ry     beta= 0.70
     Davidson diagonalization with overlap
     ethr =  2.42E-08,  avg # of iterations =  2.4

     Magnetic moment per site:
     atom:    1    charge:   15.7482    magn:   -0.2570    constr:    0.0000
     atom:    2    charge:   13.4189    magn:    0.2447    constr:    0.0000
     atom:    3    charge:   11.3540    magn:    0.0148    constr:    0.0000
     atom:    4    charge:   13.4698    magn:   -0.5848    constr:    0.0000

     total cpu time spent up to now is     5794.3 secs

     End of self-consistent calculation

 ------ SPIN UP ------------


          k = 0.0000 0.0000 0.0000 (  6879 PWs)   bands (ev):

   -79.7102 -64.6830 -63.9457 -43.0140 -43.0140 -43.0140 -33.4292 -33.4292
   -33.4292 -32.7118 -32.7118 -32.7118   0.3791   0.3791   0.3791   0.4100
     0.4100   5.2741  12.0938  12.0938  12.0938  12.2135  12.2135  13.0324
    13.0324  13.0324  14.8868  14.8868  14.9582  14.9582  14.9582  15.5238
    15.5238  18.6196  19.8394  19.8394

          k =-0.1468 0.1468-0.1468 (  6970 PWs)   bands (ev):

   -79.7102 -64.6828 -63.9459 -43.0141 -43.0141 -43.0141 -33.4298 -33.4298
   -33.4292 -32.7124 -32.7112 -32.7112   0.3783   0.3811   0.3811   0.4120
     0.4120   5.6211  11.7043  11.9174  11.9174  12.5647  12.5647  12.9262
    13.0127  13.0127  14.5588  14.7180  14.7180  14.9317  14.9317  15.4993
    15.4993  17.8096  19.1541  19.5020

          k =-0.2936 0.2936-0.2936 (  6964 PWs)   bands (ev):

   -79.7102 -64.6824 -63.9463 -43.0142 -43.0141 -43.0141 -33.4311 -33.4311
   -33.4291 -32.7136 -32.7100 -32.7100   0.3762   0.3844   0.3844   0.4167
     0.4167   6.5875  10.4423  11.8759  11.8759  12.7335  12.7913  12.7913
    13.2126  13.2126  14.2029  14.3084  14.3084  14.9726  14.9726  15.3700
    15.3700  16.2166  18.8947  19.2378

          k = 0.4403-0.4403 0.4403 (  6958 PWs)   bands (ev):

   -79.7102 -64.6822 -63.9465 -43.0142 -43.0141 -43.0141 -33.4317 -33.4317
   -33.4290 -32.7142 -32.7094 -32.7094   0.3751   0.3858   0.3858   0.4193
     0.4193   7.5263   9.2659  11.8903  11.8903  12.7787  12.8013  12.8013
    13.4516  13.4516  14.0609  14.0609  14.1096  15.0653  15.0653  15.2126
    15.2126  15.4710  18.8841  19.2423

          k = 0.0000 0.2936-0.0000 (  7015 PWs)   bands (ev):

   -79.7102 -64.6827 -63.9460 -43.0141 -43.0141 -43.0141 -33.4306 -33.4306
   -33.4281 -32.7137 -32.7105 -32.7105   0.3748   0.3835   0.3835   0.4100
     0.4142   5.7345  11.3019  12.2673  12.2673  12.3895  12.5497  12.7466
    13.0880  13.0880  14.6130  14.6130  14.6804  14.7806  14.9389  15.4537
    15.5064  17.8675  18.4059  18.4059

          k =-0.1468 0.4403-0.1468 (  7005 PWs)   bands (ev):

   -79.7102 -64.6824 -63.9463 -43.0142 -43.0142 -43.0141 -33.4323 -33.4319
   -33.4270 -32.7152 -32.7093 -32.7092   0.3729   0.3860   0.3873   0.4109
     0.4186   6.4882  10.7176  11.9087  12.2255  12.5488  12.7207  12.8851
    13.0399  13.2611  14.2032  14.2138  14.5536  14.7844  14.9369  15.3453
    15.4332  16.6435  17.4802  17.6605

          k = 0.5871-0.2936 0.5871 (  7010 PWs)   bands (ev):

   -79.7102 -64.6822 -63.9466 -43.0143 -43.0142 -43.0141 -33.4340 -33.4325
   -33.4263 -32.7161 -32.7088 -32.7081   0.3752   0.3850   0.3887   0.4142
     0.4209   7.5477   9.7080  11.5245  12.1059  12.5524  12.7880  12.9157
    13.3570  13.5491  13.9569  14.0201  14.3237  14.9304  14.9319  15.2481
    15.2523  15.5429  17.1490  17.5531

          k = 0.4403-0.1468 0.4403 (  7014 PWs)   bands (ev):

   -79.7102 -64.6822 -63.9465 -43.0143 -43.0141 -43.0141 -33.4341 -33.4317
   -33.4267 -32.7156 -32.7095 -32.7080   0.3776   0.3837   0.3869   0.4163
     0.4180   7.2189  10.0937  11.6196  11.9002  12.5355  12.7970  12.9180
    13.3434  13.4520  13.8910  14.2137  14.2830  14.8636  14.9306  15.2305
    15.4479  15.8409  17.0786  18.1396

          k = 0.2936 0.0000 0.2936 (  6985 PWs)   bands (ev):

   -79.7102 -64.6826 -63.9462 -43.0142 -43.0141 -43.0141 -33.4321 -33.4304
   -33.4280 -32.7139 -32.7107 -32.7095   0.3773   0.3831   0.3839   0.4136
     0.4150   6.1741  11.1073  11.7815  12.1636  12.4974  12.7531  12.8739
    12.9517  13.1728  14.2337  14.4142  14.5661  14.8439  14.9445  15.3697
    15.5356  17.2823  17.4209  19.1653

          k = 0.0000 0.5871-0.0000 (  6995 PWs)   bands (ev):

   -79.7102 -64.6822 -63.9465 -43.0142 -43.0142 -43.0141 -33.4333 -33.4333
   -33.4257 -32.7172 -32.7079 -32.7079   0.3657   0.3920   0.3920   0.4050
     0.4226   6.9753  10.3420  12.1028  12.4617  12.6822  12.6822  12.8534
    13.2665  13.2665  14.1138  14.1138  14.4215  14.5908  14.8710  15.2552
    15.3468  16.2930  16.4940  16.4940

          k = 0.7339-0.1468 0.7339 (  6973 PWs)   bands (ev):

   -79.7102 -64.6820 -63.9467 -43.0143 -43.0143 -43.0141 -33.4350 -33.4339
   -33.4246 -32.7182 -32.7073 -32.7069   0.3665   0.3918   0.3938   0.4046
     0.4246   7.7842  10.0767  11.4201  12.1162  12.6900  12.8535  13.0253
    13.2459  13.4784  13.9949  14.0182  14.5344  14.5721  14.7969  15.1178
    15.3159  15.5962  15.9747  16.0607

          k = 0.5871 0.0000 0.5871 (  7005 PWs)   bands (ev):

   -79.7102 -64.6820 -63.9467 -43.0144 -43.0142 -43.0140 -33.4358 -33.4332
   -33.4246 -32.7177 -32.7081 -32.7067   0.3748   0.3855   0.3916   0.4100
     0.4220   7.9441  10.3653  10.6421  12.2025  12.2577  12.7887  13.1511
    13.4062  13.5296  13.8841  14.0311  14.3998  14.6697  14.7767  15.1921
    15.4757  15.6087  15.9323  16.6432

          k = 0.0000-0.8807 0.0000 (  7046 PWs)   bands (ev):

   -79.7102 -64.6820 -63.9468 -43.0143 -43.0143 -43.0141 -33.4347 -33.4347
   -33.4245 -32.7190 -32.7066 -32.7066   0.3611   0.3960   0.3960   0.4001
     0.4268   8.0271   9.8326  11.7886  11.8477  12.9452  12.9452  13.2495
    13.3102  13.3102  14.0618  14.1791  14.1791  14.6655  14.7638  14.9891
    15.3085  15.4478  15.4478  15.8139

          k = 0.5871-0.2936 0.8807 (  6979 PWs)   bands (ev):

   -79.7102 -64.6822 -63.9466 -43.0143 -43.0142 -43.0141 -33.4345 -33.4329
   -33.4254 -32.7169 -32.7085 -32.7074   0.3728   0.3858   0.3913   0.4098
     0.4214   7.3114  10.3370  11.5090  12.0438  12.5081  12.9326  12.9772
    13.0604  13.5567  13.8388  14.1379  14.4654  14.6754  14.8878  15.2659
    15.4087  16.1169  16.2415  16.6854

          k = 0.4403-0.1468 0.7339 (  6972 PWs)   bands (ev):

   -79.7102 -64.6820 -63.9467 -43.0144 -43.0142 -43.0140 -33.4355 -33.4336
   -33.4245 -32.7177 -32.7079 -32.7068   0.3777   0.3808   0.3933   0.4100
     0.4222   7.9558  10.0927  11.0124  11.9873  12.4398  12.9093  12.9899
    13.2738  13.6525  13.8778  14.0377  14.3773  14.7197  14.8407  15.1741
    15.3388  15.5398  16.1208  16.3126

          k =-0.2936-0.8807 0.0000 (  6990 PWs)   bands (ev):

   -79.7102 -64.6820 -63.9468 -43.0144 -43.0143 -43.0140 -33.4353 -33.4347
   -33.4239 -32.7186 -32.7070 -32.7066   0.3698   0.3874   0.3960   0.4050
     0.4245   8.1207  10.2116  11.1800  11.6344  12.7350  12.9309  13.0070
    13.2259  13.5207  13.9232  14.1274  14.4379  14.6582  14.7686  15.0675
    15.2594  15.5914  15.6124  15.8175

 ------ SPIN DOWN ----------


          k = 0.0000 0.0000 0.0000 (  6879 PWs)   bands (ev):

   -80.0510 -64.6156 -64.4240 -43.3416 -43.3416 -43.3416 -33.3856 -33.3856
   -33.3856 -33.1549 -33.1549 -33.1549   0.3818   0.3818   0.3818   0.4156
     0.4156   5.2864  11.8902  11.8902  11.8902  12.0043  12.0043  13.1811
    13.1811  13.1811  14.6579  14.6579  14.6645  14.6645  14.6645  15.1597
    15.1597  18.6805  19.7177  19.7177

          k =-0.1468 0.1468-0.1468 (  6970 PWs)   bands (ev):

   -80.0510 -64.6148 -64.4248 -43.3416 -43.3416 -43.3416 -33.3875 -33.3875
   -33.3849 -33.1561 -33.1530 -33.1530   0.3810   0.3838   0.3838   0.4176
     0.4176   5.6330  11.5533  11.7473  11.7473  12.3297  12.3297  13.1023
    13.1250  13.1250  14.2162  14.3605  14.3605  14.7814  14.7814  15.1669
    15.1669  17.6945  19.1910  19.4033

          k =-0.2936 0.2936-0.2936 (  6964 PWs)   bands (ev):

   -80.0510 -64.6133 -64.4263 -43.3417 -43.3416 -43.3416 -33.3913 -33.3913
   -33.3837 -33.1583 -33.1492 -33.1492   0.3789   0.3872   0.3872   0.4223
     0.4223   6.5971  10.4189  11.7486  11.7486  12.6870  12.6870  12.7732
    13.0775  13.0775  13.8873  13.9534  13.9534  14.8224  14.8224  15.1481
    15.1481  16.1476  18.8271  19.1516

          k = 0.4403-0.4403 0.4403 (  6958 PWs)   bands (ev):

   -80.0510 -64.6125 -64.4271 -43.3417 -43.3416 -43.3416 -33.3932 -33.3932
   -33.3831 -33.1594 -33.1474 -33.1474   0.3778   0.3886   0.3886   0.4249
     0.4249   7.5266   9.2865  11.7905  11.7905  12.7445  12.7783  12.7783
    13.1465  13.1465  13.7292  13.7292  13.8301  14.8593  14.8593  15.1067
    15.1067  15.4282  18.7855  19.1786

          k = 0.0000 0.2936-0.0000 (  7015 PWs)   bands (ev):

   -80.0510 -64.6146 -64.4250 -43.3416 -43.3416 -43.3416 -33.3898 -33.3898
   -33.3813 -33.1598 -33.1508 -33.1508   0.3774   0.3862   0.3862   0.4157
     0.4198   5.7463  11.1685  12.0737  12.0737  12.1677  12.3191  12.8502
    13.2455  13.2455  14.2772  14.3103  14.3103  14.6148  14.8121  15.0386
    15.2224  17.7483  18.3271  18.3271

          k =-0.1468 0.4403-0.1468 (  7005 PWs)   bands (ev):

   -80.0510 -64.6133 -64.4263 -43.3417 -43.3417 -43.3416 -33.3943 -33.3937
   -33.3777 -33.1639 -33.1469 -33.1466   0.3756   0.3887   0.3900   0.4166
     0.4243   6.4985  10.6411  11.8212  12.0698  12.5019  12.5397  12.6980
    13.1326  13.2973  13.8554  13.9031  14.1832  14.6640  14.8418  14.9667
    15.2109  16.5547  17.3524  17.5668

          k = 0.5871-0.2936 0.5871 (  7010 PWs)   bands (ev):

   -80.0510 -64.6122 -64.4274 -43.3418 -43.3417 -43.3416 -33.3987 -33.3953
   -33.3755 -33.1663 -33.1453 -33.1428   0.3779   0.3877   0.3914   0.4199
     0.4266   7.5500   9.7153  11.4465  12.0044  12.4588  12.7166  12.8942
    13.1724  13.3060  13.6434  13.6993  14.0046  14.7775  14.8476  15.0590
    15.0707  15.4639  16.9866  17.4285

          k = 0.4403-0.1468 0.4403 (  7014 PWs)   bands (ev):

   -80.0510 -64.6125 -64.4271 -43.3418 -43.3417 -43.3416 -33.3987 -33.3932
   -33.3768 -33.1648 -33.1474 -33.1428   0.3803   0.3864   0.3896   0.4220
     0.4237   7.2248  10.0881  11.5552  11.7898  12.4146  12.7804  12.8732
    13.0743  13.3447  13.6093  13.8189  13.9656  14.8043  14.8157  14.9217
    15.2792  15.7463  16.9348  18.0407

          k = 0.2936 0.0000 0.2936 (  6985 PWs)   bands (ev):

   -80.0510 -64.6138 -64.4258 -43.3417 -43.3416 -43.3416 -33.3936 -33.3893
   -33.3811 -33.1602 -33.1512 -33.1473   0.3799   0.3858   0.3866   0.4193
     0.4207   6.1852  11.0135  11.6406  12.0572  12.2971  12.6794  12.8046
    12.9382  13.2778  13.9355  14.0642  14.1434  14.6951  14.8582  15.0153
    15.2850  17.1400  17.3504  19.0933

          k = 0.0000 0.5871-0.0000 (  6995 PWs)   bands (ev):

   -80.0510 -64.6125 -64.4271 -43.3417 -43.3417 -43.3416 -33.3977 -33.3977
   -33.3721 -33.1702 -33.1429 -33.1429   0.3684   0.3946   0.3946   0.4109
     0.4284   6.9843  10.2628  12.1007  12.2887  12.5369  12.5369  12.5807
    13.4410  13.4410  13.7606  13.7606  14.2331  14.3929  14.7562  14.8445
    15.1517  16.0183  16.4137  16.4137

          k = 0.7339-0.1468 0.7339 (  6973 PWs)   bands (ev):

   -80.0510 -64.6117 -64.4279 -43.3418 -43.3418 -43.3416 -33.4016 -33.3995
   -33.3687 -33.1735 -33.1412 -33.1396   0.3691   0.3944   0.3964   0.4105
     0.4304   7.7875  10.0263  11.3983  12.0155  12.5768  12.7377  12.9487
    13.2235  13.2771  13.7223  13.7396  14.2288  14.4901  14.7249  15.0049
    15.0620  15.4460  15.6488  15.8995

          k = 0.5871 0.0000 0.5871 (  7005 PWs)   bands (ev):

   -80.0510 -64.6117 -64.4279 -43.3419 -43.3417 -43.3416 -33.4032 -33.3973
   -33.3697 -33.1719 -33.1434 -33.1387   0.3775   0.3881   0.3942   0.4159
     0.4278   7.9421  10.3752  10.5993  12.0858  12.1672  12.7163  13.1203
    13.2594  13.3004  13.6364  13.6886  13.9978  14.6693  14.6846  15.0068
    15.3559  15.4160  15.6883  16.4670

          k = 0.0000-0.8807 0.0000 (  7046 PWs)   bands (ev):

   -80.0510 -64.6114 -64.4282 -43.3418 -43.3418 -43.3416 -33.4015 -33.4015
   -33.3672 -33.1756 -33.1392 -33.1392   0.3637   0.3987   0.3987   0.4061
     0.4326   8.0304   9.7777  11.7490  11.7527  12.8827  12.9324  12.9324
    13.1869  13.1869  14.0051  14.0051  14.1407  14.3104  14.6612  14.7924
    15.0168  15.3552  15.3552  15.3556

          k = 0.5871-0.2936 0.8807 (  6979 PWs)   bands (ev):

   -80.0510 -64.6122 -64.4274 -43.3418 -43.3417 -43.3416 -33.4002 -33.3963
   -33.3723 -33.1694 -33.1444 -33.1412   0.3755   0.3885   0.3940   0.4156
     0.4271   7.3177  10.2910  11.4836  11.9586  12.3486  12.8558  12.8770
    12.9700  13.4978  13.5637  13.7579  14.1054  14.6377  14.7954  14.9507
    15.2227  15.9874  16.1228  16.4712

          k = 0.4403-0.1468 0.7339 (  6972 PWs)   bands (ev):

   -80.0510 -64.6117 -64.4279 -43.3419 -43.3417 -43.3416 -33.4024 -33.3983
   -33.3695 -33.1721 -33.1426 -33.1393   0.3804   0.3834   0.3959   0.4158
     0.4279   7.9537  10.0944  10.9567  11.9397  12.3071  12.8582  12.8877
    13.1556  13.4066  13.6292  13.7023  14.0318  14.6955  14.7954  14.9843
    15.1644  15.3794  15.9153  16.0483

          k =-0.2936-0.8807 0.0000 (  6990 PWs)   bands (ev):

   -80.0510 -64.6114 -64.4282 -43.3419 -43.3418 -43.3416 -33.4018 -33.4017
   -33.3669 -33.1751 -33.1396 -33.1392   0.3724   0.3900   0.3986   0.4110
     0.4303   8.1190  10.1658  11.1436  11.6151  12.6332  12.7934  13.0090
    13.1031  13.2498  13.6106  13.9028  14.1322  14.6674  14.7192  15.0103
    15.1184  15.2673  15.3543  15.4733

     the Fermi energy is    14.7962 ev

!    total energy              =    -998.75136683 Ry
     Harris-Foulkes estimate   =    -998.75136692 Ry
     estimated scf accuracy    <       0.00000020 Ry

     The total energy is the sum of the following terms:

     one-electron contribution =    -446.55285162 Ry
     hartree contribution      =     262.29897374 Ry
     xc contribution           =    -123.59123062 Ry
     ewald contribution        =    -579.54686455 Ry
     one-center paw contrib.   =    -111.35755103 Ry
     smearing contrib. (-TS)   =      -0.00184275 Ry

     total magnetization       =    -0.54 Bohr mag/cell
     absolute magnetization    =     1.21 Bohr mag/cell

     convergence has been achieved in  36 iterations

     Forces acting on atoms (cartesian axes, Ry/au):

     atom    1 type  2   force =     0.00000000    0.00000000    0.00000000
     atom    2 type  1   force =    -0.00000000    0.00000000    0.00000000
     atom    3 type  3   force =     0.00000000   -0.00000000    0.00000000
     atom    4 type  1   force =     0.00000000   -0.00000000   -0.00000000

     Total force =     0.000000     Total SCF correction =     0.000000


     Computing stress (Cartesian axis) and pressure

          total   stress  (Ry/bohr**3)                   (kbar)     P= -256.42
  -0.00174312   0.00000000   0.00000000       -256.42      0.00      0.00
   0.00000000  -0.00174312  -0.00000000          0.00   -256.42     -0.00
   0.00000000  -0.00000000  -0.00174312          0.00     -0.00   -256.42


     number of scf cycles    =   2
     number of bfgs steps    =   1

     enthalpy old            =    -998.7281283083 Ry
     enthalpy new            =    -998.7513668269 Ry

     CASE: enthalpy_new < enthalpy_old

     new trust radius        =       0.1338496245 bohr
     new conv_thr            =       0.0000000100 Ry

     new unit-cell volume =    328.95423 a.u.^3 (    48.74599 Ang^3 )
     density =      8.12564 g/cm^3

CELL_PARAMETERS (alat= 10.00000000)
  -0.547900665   0.000000000   0.547900665
   0.000000000   0.547900665   0.547900665
  -0.547900665   0.547900665  -0.000000000

ATOMIC_POSITIONS (alat)
Co       0.547900665   0.547900665   0.547900665
Mn       0.273950333   0.273950333   0.273950333
Ga       0.821850998   0.821850998   0.821850998
Mn       0.000000000  -0.000000000  -0.000000000



     Writing output data file Mn2CoGa.save/
     NEW-OLD atomic charge density approx. for the potential

     Check: negative core charge=   -0.000006
     extrapolated charge   53.46176, renormalised to   60.00000

     total cpu time spent up to now is     5940.7 secs

     Self-consistent Calculation

     iteration #  1     ecut=   140.00 Ry     beta= 0.70
     Davidson diagonalization with overlap
     ethr =  1.00E-06,  avg # of iterations =  7.4

     total cpu time spent up to now is     6154.6 secs

     total energy              =    -957.33832469 Ry
     Harris-Foulkes estimate   =   -1047.51341610 Ry
     estimated scf accuracy    <      68.50983739 Ry

     total magnetization       =    -4.26 Bohr mag/cell
     absolute magnetization    =     4.31 Bohr mag/cell

     iteration #  2     ecut=   140.00 Ry     beta= 0.70
     Davidson diagonalization with overlap
     ethr =  1.00E-02,  avg # of iterations =  4.1

     total cpu time spent up to now is     6301.3 secs

     total energy              =    -987.75432645 Ry
     Harris-Foulkes estimate   =   -1053.68055737 Ry
     estimated scf accuracy    <     167.28253321 Ry

     total magnetization       =    -0.80 Bohr mag/cell
     absolute magnetization    =     0.94 Bohr mag/cell

     iteration #  3     ecut=   140.00 Ry     beta= 0.70
     Davidson diagonalization with overlap
     ethr =  1.00E-02,  avg # of iterations =  4.1

     total cpu time spent up to now is     6434.2 secs

     total energy              =    -995.73831250 Ry
     Harris-Foulkes estimate   =   -1006.59816566 Ry
     estimated scf accuracy    <      46.09009597 Ry

     total magnetization       =    -0.77 Bohr mag/cell
     absolute magnetization    =     0.82 Bohr mag/cell

     iteration #  4     ecut=   140.00 Ry     beta= 0.70
     Davidson diagonalization with overlap
     ethr =  1.00E-02,  avg # of iterations =  3.8

     total cpu time spent up to now is     6538.1 secs

     total energy              =    -998.35909369 Ry
     Harris-Foulkes estimate   =   -1004.39685330 Ry
     estimated scf accuracy    <      51.05537215 Ry

     total magnetization       =    -0.75 Bohr mag/cell
     absolute magnetization    =     0.91 Bohr mag/cell

     iteration #  5     ecut=   140.00 Ry     beta= 0.70
     Davidson diagonalization with overlap
     ethr =  1.00E-02,  avg # of iterations =  3.4

     total cpu time spent up to now is     6634.0 secs

     total energy              =   -1000.08739458 Ry
     Harris-Foulkes estimate   =   -1000.70809332 Ry
     estimated scf accuracy    <      15.88216197 Ry

     total magnetization       =    -1.61 Bohr mag/cell
     absolute magnetization    =     1.80 Bohr mag/cell

     iteration #  6     ecut=   140.00 Ry     beta= 0.70
     Davidson diagonalization with overlap
     ethr =  1.00E-02,  avg # of iterations =  1.0

     total cpu time spent up to now is     6721.9 secs

     total energy              =    -998.82307352 Ry
     Harris-Foulkes estimate   =   -1000.20905014 Ry
     estimated scf accuracy    <      11.69624924 Ry

     total magnetization       =    -1.44 Bohr mag/cell
     absolute magnetization    =     1.58 Bohr mag/cell

     iteration #  7     ecut=   140.00 Ry     beta= 0.70
     Davidson diagonalization with overlap
     ethr =  1.00E-02,  avg # of iterations =  2.1

     total cpu time spent up to now is     6796.4 secs

     total energy              =    -999.06757828 Ry
     Harris-Foulkes estimate   =    -999.10790861 Ry
     estimated scf accuracy    <       4.70320127 Ry

     total magnetization       =    -1.23 Bohr mag/cell
     absolute magnetization    =     1.49 Bohr mag/cell

     iteration #  8     ecut=   140.00 Ry     beta= 0.70
     Davidson diagonalization with overlap
     ethr =  7.84E-03,  avg # of iterations =  1.0

     total cpu time spent up to now is     6874.9 secs

     total energy              =    -998.90067106 Ry
     Harris-Foulkes estimate   =    -999.15679822 Ry
     estimated scf accuracy    <       5.01462682 Ry

     total magnetization       =    -1.71 Bohr mag/cell
     absolute magnetization    =     1.89 Bohr mag/cell

     iteration #  9     ecut=   140.00 Ry     beta= 0.70
     Davidson diagonalization with overlap
     ethr =  7.84E-03,  avg # of iterations =  1.0

     total cpu time spent up to now is     6949.6 secs

     total energy              =    -998.83257723 Ry
     Harris-Foulkes estimate   =    -998.95251812 Ry
     estimated scf accuracy    <       3.09976379 Ry

     total magnetization       =    -1.68 Bohr mag/cell
     absolute magnetization    =     1.91 Bohr mag/cell

     iteration # 10     ecut=   140.00 Ry     beta= 0.70
     Davidson diagonalization with overlap
     ethr =  5.17E-03,  avg # of iterations =  1.0

     total cpu time spent up to now is     7038.8 secs

     total energy              =    -998.37424411 Ry
     Harris-Foulkes estimate   =    -998.87232096 Ry
     estimated scf accuracy    <       2.02186671 Ry

     total magnetization       =    -1.88 Bohr mag/cell
     absolute magnetization    =     2.10 Bohr mag/cell

     iteration # 11     ecut=   140.00 Ry     beta= 0.70
     Davidson diagonalization with overlap
     ethr =  3.37E-03,  avg # of iterations =  4.2

     total cpu time spent up to now is     7145.8 secs

     total energy              =    -998.81181379 Ry
     Harris-Foulkes estimate   =    -999.04777426 Ry
     estimated scf accuracy    <       7.06675057 Ry

     total magnetization       =    -2.12 Bohr mag/cell
     absolute magnetization    =     2.29 Bohr mag/cell

     iteration # 12     ecut=   140.00 Ry     beta= 0.70
     Davidson diagonalization with overlap
     ethr =  3.37E-03,  avg # of iterations =  1.3

     total cpu time spent up to now is     7218.8 secs

     total energy              =    -998.74277067 Ry
     Harris-Foulkes estimate   =    -998.87066558 Ry
     estimated scf accuracy    <       2.32842228 Ry

     total magnetization       =    -2.74 Bohr mag/cell
     absolute magnetization    =     2.96 Bohr mag/cell

     iteration # 13     ecut=   140.00 Ry     beta= 0.70
     Davidson diagonalization with overlap
     ethr =  3.37E-03,  avg # of iterations =  1.0

     total cpu time spent up to now is     7301.6 secs

     total energy              =    -998.79183091 Ry
     Harris-Foulkes estimate   =    -998.79943179 Ry
     estimated scf accuracy    <       0.10186699 Ry

     total magnetization       =    -3.23 Bohr mag/cell
     absolute magnetization    =     3.50 Bohr mag/cell

     iteration # 14     ecut=   140.00 Ry     beta= 0.70
     Davidson diagonalization with overlap
     ethr =  1.70E-04,  avg # of iterations =  4.2

     total cpu time spent up to now is     7411.4 secs

     total energy              =    -998.82782649 Ry
     Harris-Foulkes estimate   =    -998.82147508 Ry
     estimated scf accuracy    <       0.06014096 Ry

     total magnetization       =    -3.28 Bohr mag/cell
     absolute magnetization    =     3.55 Bohr mag/cell

     iteration # 15     ecut=   140.00 Ry     beta= 0.70
     Davidson diagonalization with overlap
     ethr =  1.00E-04,  avg # of iterations =  1.1

     total cpu time spent up to now is     7486.9 secs

     total energy              =    -998.82454762 Ry
     Harris-Foulkes estimate   =    -998.82965638 Ry
     estimated scf accuracy    <       0.09198314 Ry

     total magnetization       =    -3.35 Bohr mag/cell
     absolute magnetization    =     3.64 Bohr mag/cell

     iteration # 16     ecut=   140.00 Ry     beta= 0.70
     Davidson diagonalization with overlap
     ethr =  1.00E-04,  avg # of iterations =  1.0

     total cpu time spent up to now is     7589.8 secs

     total energy              =    -998.82291421 Ry
     Harris-Foulkes estimate   =    -998.82492932 Ry
     estimated scf accuracy    <       0.07656827 Ry

     total magnetization       =    -3.35 Bohr mag/cell
     absolute magnetization    =     3.64 Bohr mag/cell

     iteration # 17     ecut=   140.00 Ry     beta= 0.70
     Davidson diagonalization with overlap
     ethr =  1.00E-04,  avg # of iterations =  1.0

     total cpu time spent up to now is     7691.0 secs

     total energy              =    -998.80808382 Ry
     Harris-Foulkes estimate   =    -998.82312166 Ry
     estimated scf accuracy    <       0.06882327 Ry

     total magnetization       =    -3.36 Bohr mag/cell
     absolute magnetization    =     3.66 Bohr mag/cell

     iteration # 18     ecut=   140.00 Ry     beta= 0.70
     Davidson diagonalization with overlap
     ethr =  1.00E-04,  avg # of iterations =  1.6

     total cpu time spent up to now is     7791.5 secs

     total energy              =    -998.79199331 Ry
     Harris-Foulkes estimate   =    -998.82443061 Ry
     estimated scf accuracy    <       0.10101678 Ry

     total magnetization       =    -3.03 Bohr mag/cell
     absolute magnetization    =     3.31 Bohr mag/cell

     iteration # 19     ecut=   140.00 Ry     beta= 0.70
     Davidson diagonalization with overlap
     ethr =  1.00E-04,  avg # of iterations =  4.0

     total cpu time spent up to now is     7883.5 secs

     total energy              =    -998.82611325 Ry
     Harris-Foulkes estimate   =    -998.82480508 Ry
     estimated scf accuracy    <       0.02339672 Ry

     total magnetization       =    -3.36 Bohr mag/cell
     absolute magnetization    =     3.68 Bohr mag/cell

     iteration # 20     ecut=   140.00 Ry     beta= 0.70
     Davidson diagonalization with overlap
     ethr =  3.90E-05,  avg # of iterations =  1.6

     total cpu time spent up to now is     7957.0 secs

     total energy              =    -998.82854653 Ry
     Harris-Foulkes estimate   =    -998.82887933 Ry
     estimated scf accuracy    <       0.01907017 Ry

     total magnetization       =    -3.42 Bohr mag/cell
     absolute magnetization    =     3.74 Bohr mag/cell

     iteration # 21     ecut=   140.00 Ry     beta= 0.70
     Davidson diagonalization with overlap
     ethr =  3.18E-05,  avg # of iterations =  3.0

     total cpu time spent up to now is     8039.1 secs

     total energy              =    -998.83481820 Ry
     Harris-Foulkes estimate   =    -998.83372121 Ry
     estimated scf accuracy    <       0.01011730 Ry

     total magnetization       =    -3.26 Bohr mag/cell
     absolute magnetization    =     3.59 Bohr mag/cell

     iteration # 22     ecut=   140.00 Ry     beta= 0.70
     Davidson diagonalization with overlap
     ethr =  1.69E-05,  avg # of iterations =  2.0

     total cpu time spent up to now is     8113.9 secs

     total energy              =    -998.83857845 Ry
     Harris-Foulkes estimate   =    -998.83768990 Ry
     estimated scf accuracy    <       0.00668025 Ry

     total magnetization       =    -3.04 Bohr mag/cell
     absolute magnetization    =     3.37 Bohr mag/cell

     iteration # 23     ecut=   140.00 Ry     beta= 0.70
     Davidson diagonalization with overlap
     ethr =  1.11E-05,  avg # of iterations =  1.0

     total cpu time spent up to now is     8186.3 secs

     total energy              =    -998.83025587 Ry
     Harris-Foulkes estimate   =    -998.83899254 Ry
     estimated scf accuracy    <       0.00594488 Ry

     total magnetization       =    -2.96 Bohr mag/cell
     absolute magnetization    =     3.31 Bohr mag/cell

     iteration # 24     ecut=   140.00 Ry     beta= 0.70
     Davidson diagonalization with overlap
     ethr =  9.91E-06,  avg # of iterations =  2.1

     total cpu time spent up to now is     8260.7 secs

     total energy              =    -998.83288851 Ry
     Harris-Foulkes estimate   =    -998.83432035 Ry
     estimated scf accuracy    <       0.00581853 Ry

     total magnetization       =    -3.43 Bohr mag/cell
     absolute magnetization    =     3.76 Bohr mag/cell

     iteration # 25     ecut=   140.00 Ry     beta= 0.70
     Davidson diagonalization with overlap
     ethr =  9.70E-06,  avg # of iterations =  1.2

     total cpu time spent up to now is     8333.5 secs

     total energy              =    -998.82931979 Ry
     Harris-Foulkes estimate   =    -998.83335105 Ry
     estimated scf accuracy    <       0.00410718 Ry

     total magnetization       =    -3.54 Bohr mag/cell
     absolute magnetization    =     3.87 Bohr mag/cell

     iteration # 26     ecut=   140.00 Ry     beta= 0.70
     Davidson diagonalization with overlap
     ethr =  6.85E-06,  avg # of iterations =  4.1

     total cpu time spent up to now is     8425.8 secs

     total energy              =    -998.83078658 Ry
     Harris-Foulkes estimate   =    -998.83364960 Ry
     estimated scf accuracy    <       0.00555439 Ry

     total magnetization       =    -4.23 Bohr mag/cell
     absolute magnetization    =     4.62 Bohr mag/cell

     iteration # 27     ecut=   140.00 Ry     beta= 0.70
     Davidson diagonalization with overlap
     ethr =  6.85E-06,  avg # of iterations =  1.8

     total cpu time spent up to now is     8502.2 secs

     total energy              =    -998.83093007 Ry
[...]
     estimated scf accuracy    <       0.00001222 Ry

     total magnetization       =    -2.02 Bohr mag/cell
     absolute magnetization    =     6.14 Bohr mag/cell

     iteration # 24     ecut=   140.00 Ry     beta= 0.70
     Davidson diagonalization with overlap
     ethr =  2.04E-08,  avg # of iterations =  4.0

     total cpu time spent up to now is    17306.4 secs

     total energy              =    -998.88131263 Ry
     Harris-Foulkes estimate   =    -998.88131315 Ry
     estimated scf accuracy    <       0.00000414 Ry

     total magnetization       =    -2.02 Bohr mag/cell
     absolute magnetization    =     6.15 Bohr mag/cell

     iteration # 25     ecut=   140.00 Ry     beta= 0.70
     Davidson diagonalization with overlap
     ethr =  6.89E-09,  avg # of iterations =  1.7

     total cpu time spent up to now is    17415.6 secs

     total energy              =    -998.88131299 Ry
     Harris-Foulkes estimate   =    -998.88131308 Ry
     estimated scf accuracy    <       0.00000051 Ry

     total magnetization       =    -2.02 Bohr mag/cell
     absolute magnetization    =     6.15 Bohr mag/cell

     iteration # 26     ecut=   140.00 Ry     beta= 0.70
     Davidson diagonalization with overlap
     ethr =  8.45E-10,  avg # of iterations =  2.8

     total cpu time spent up to now is    17540.9 secs

     total energy              =    -998.88131307 Ry
     Harris-Foulkes estimate   =    -998.88131314 Ry
     estimated scf accuracy    <       0.00000054 Ry

     total magnetization       =    -2.02 Bohr mag/cell
     absolute magnetization    =     6.15 Bohr mag/cell

     iteration # 27     ecut=   140.00 Ry     beta= 0.70
     Davidson diagonalization with overlap
     ethr =  8.45E-10,  avg # of iterations =  1.2

     total cpu time spent up to now is    17663.0 secs

     total energy              =    -998.88131312 Ry
     Harris-Foulkes estimate   =    -998.88131312 Ry
     estimated scf accuracy    <       0.00000002 Ry

     total magnetization       =    -2.02 Bohr mag/cell
     absolute magnetization    =     6.15 Bohr mag/cell

     iteration # 28     ecut=   140.00 Ry     beta= 0.70
     Davidson diagonalization with overlap
     ethr =  2.65E-11,  avg # of iterations =  4.2

     Magnetic moment per site:
     atom:    1    charge:   15.1639    magn:   -1.0420    constr:    0.0000
     atom:    2    charge:   12.8318    magn:   -2.7402    constr:    0.0000
     atom:    3    charge:   10.8027    magn:    0.0045    constr:    0.0000
     atom:    4    charge:   12.8759    magn:    1.7886    constr:    0.0000

     total cpu time spent up to now is    17801.6 secs

     End of self-consistent calculation

 ------ SPIN UP ------------


          k = 0.0000 0.0000 0.0000 (  9257 PWs)   bands (ev):

   -77.0901 -63.2198 -60.4998 -40.4240 -40.4240 -40.4240 -31.9796 -31.9796
   -31.9796 -29.3132 -29.3132 -29.3132   2.5122   2.5122   2.5122   2.5537
     2.5537   6.7298  13.5479  13.5479  13.5479  14.0032  14.0032  15.6988
    15.6988  15.6988  17.1323  17.1323  17.1323  17.2327  17.2327  18.7252
    18.7252  21.9297  22.3108  22.3108

          k =-0.1521 0.1521-0.1521 (  9222 PWs)   bands (ev):

   -77.0901 -63.2196 -60.5000 -40.4240 -40.4240 -40.4240 -31.9800 -31.9800
   -31.9799 -29.3139 -29.3129 -29.3129   2.5106   2.5148   2.5148   2.5574
     2.5574   7.1080  13.2407  13.5288  13.5288  14.2240  14.2240  15.5980
    15.5980  15.6449  16.4217  16.6612  16.6612  17.5925  17.5925  18.6297
    18.6297  20.6849  22.2248  22.2248

          k =-0.3042 0.3042-0.3042 (  9222 PWs)   bands (ev):

   -77.0901 -63.2193 -60.5003 -40.4242 -40.4241 -40.4241 -31.9809 -31.9809
   -31.9805 -29.3151 -29.3121 -29.3121   2.5067   2.5192   2.5192   2.5654
     2.5654   8.1566  12.1717  13.6066  13.6066  14.6078  14.6078  15.0012
    15.3818  15.3818  16.0109  16.1611  16.1611  17.7768  17.7768  18.5472
    18.5472  19.2029  21.7207  22.1597

          k = 0.4563-0.4563 0.4563 (  9204 PWs)   bands (ev):

   -77.0901 -63.2192 -60.5005 -40.4242 -40.4241 -40.4241 -31.9813 -31.9813
   -31.9808 -29.3157 -29.3117 -29.3117   2.5047   2.5211   2.5211   2.5698
     2.5698   9.1652  11.0100  13.6841  13.6841  14.8243  14.8359  14.8359
    15.2289  15.2289  15.9220  15.9220  15.9280  17.8009  17.8009  18.5110
    18.5615  18.5615  21.6637  22.3460

          k =-0.0000 0.3042-0.0000 (  9221 PWs)   bands (ev):

   -77.0901 -63.2196 -60.5000 -40.4241 -40.4241 -40.4239 -31.9805 -31.9805
   -31.9793 -29.3147 -29.3124 -29.3124   2.5053   2.5182   2.5182   2.5546
     2.5607   7.2315  12.9120  13.7622  13.7622  14.1645  14.2264  15.2946
    15.7380  15.7380  16.4903  16.6660  16.6660  17.2264  17.6932  18.5460
    18.5896  20.6597  21.2373  21.2373

          k =-0.1521 0.4563-0.1521 (  9214 PWs)   bands (ev):

   -77.0901 -63.2193 -60.5003 -40.4243 -40.4242 -40.4240 -31.9817 -31.9813
   -31.9790 -29.3159 -29.3118 -29.3116   2.5019   2.5213   2.5233   2.5567
     2.5682   8.0500  12.3859  13.6371  13.8995  14.4607  14.4671  14.8424
    15.5596  15.6686  15.9844  16.1418  16.4178  17.4252  17.8618  18.4074
    18.4428  19.5726  20.3224  20.4747

          k = 0.6084-0.3042 0.6084 (  9174 PWs)   bands (ev):

   -77.0901 -63.2192 -60.5005 -40.4244 -40.4242 -40.4239 -31.9831 -31.9818
   -31.9788 -29.3163 -29.3115 -29.3112   2.5048   2.5195   2.5251   2.5620
     2.5723   9.1905  11.4591  13.2929  13.8962  14.4779  14.7711  14.9309
    15.2994  15.3674  15.8843  15.8994  16.1498  17.7161  17.7763  18.3718
    18.4479  18.5678  19.9990  20.3100

          k = 0.4563-0.1521 0.4563 (  9189 PWs)   bands (ev):

   -77.0901 -63.2192 -60.5005 -40.4244 -40.4241 -40.4240 -31.9830 -31.9813
   -31.9790 -29.3158 -29.3117 -29.3115   2.5085   2.5177   2.5225   2.5649
     2.5681   8.8369  11.8548  13.3766  13.6706  14.4538  14.8483  14.9001
    15.1551  15.5410  15.7973  16.0401  16.1607  17.5601  17.9978  18.4254
    18.4299  18.8048  19.9219  20.9690

          k = 0.3042 0.0000 0.3042 (  9221 PWs)   bands (ev):

   -77.0901 -63.2194 -60.5002 -40.4242 -40.4240 -40.4240 -31.9816 -31.9804
   -31.9794 -29.3149 -29.3125 -29.3120   2.5086   2.5174   2.5184   2.5606
     2.5624   7.7092  12.7590  13.4752  13.7604  14.3002  14.5336  15.1415
    15.3375  15.7199  16.1163  16.2970  16.3748  17.3741  18.0337  18.4595
    18.5344  20.1596  20.3696  21.9727

          k =-0.0000 0.6084-0.0000 (  9164 PWs)   bands (ev):

   -77.0901 -63.2192 -60.5005 -40.4243 -40.4243 -40.4240 -31.9823 -31.9823
   -31.9785 -29.3177 -29.3107 -29.3107   2.4909   2.5298   2.5298   2.5481
     2.5746   8.5795  11.9739  14.0037  14.3225  14.3225  14.4485  14.5414
    15.7789  15.7789  15.9866  15.9866  16.4235  17.2214  17.6498  18.1218
    18.1550  19.3302  19.3546  19.3546

          k = 0.7606-0.1521 0.7606 (  9206 PWs)   bands (ev):

   -77.0900 -63.2191 -60.5006 -40.4245 -40.4243 -40.4240 -31.9835 -31.9827
   -31.9780 -29.3180 -29.3105 -29.3103   2.4916   2.5291   2.5322   2.5478
     2.5781   9.4569  11.7098  13.2951  13.9773  14.4088  14.7911  14.8848
    15.4054  15.4282  15.8922  15.9448  16.3892  17.4769  17.5977  17.9887
    18.1756  18.5871  18.8377  19.0203

          k = 0.6084 0.0000 0.6084 (  9196 PWs)   bands (ev):

   -77.0900 -63.2191 -60.5006 -40.4246 -40.4243 -40.4239 -31.9842 -31.9822
   -31.9778 -29.3170 -29.3111 -29.3108   2.5039   2.5198   2.5290   2.5558
     2.5744   9.6171  12.1614  12.3629  14.0390  14.0527  14.9064  15.1701
    15.2023  15.3532  15.8913  15.8990  16.1721  17.5793  17.8412  18.0159
    18.4057  18.6794  18.8175  19.3879

          k = 0.0000-0.9127 0.0000 (  9176 PWs)   bands (ev):

   -77.0900 -63.2190 -60.5007 -40.4244 -40.4244 -40.4241 -31.9832 -31.9832
   -31.9780 -29.3191 -29.3099 -29.3099   2.4833   2.5354   2.5354   2.5410
     2.5815   9.7376  11.3996  13.6502  13.7969  14.7707  14.8154  14.8154
    15.3440  15.3440  16.0922  16.0922  16.4744  17.2308  17.4442  17.8546
    17.8958  18.4468  18.4468  18.9604

          k = 0.6084-0.3042 0.9127 (  9212 PWs)   bands (ev):

   -77.0901 -63.2192 -60.5005 -40.4245 -40.4242 -40.4239 -31.9833 -31.9820
   -31.9782 -29.3168 -29.3114 -29.3108   2.5013   2.5206   2.5287   2.5555
     2.5731   8.9394  12.0394  13.3001  13.8949  14.3328  14.7202  14.8780
    15.2803  15.6249  15.8056  16.0029  16.3034  17.4536  17.9557  18.1566
    18.3644  18.9698  19.1343  19.5760

          k = 0.4563-0.1521 0.7606 (  9192 PWs)   bands (ev):

   -77.0900 -63.2191 -60.5006 -40.4246 -40.4243 -40.4239 -31.9840 -31.9825
   -31.9778 -29.3169 -29.3115 -29.3104   2.5083   2.5129   2.5314   2.5558
     2.5746   9.6309  11.8495  12.7396  13.8928  14.2341  14.8307  15.1089
    15.2187  15.3467  15.8990  15.9294  16.1706  17.5810  17.7843  18.1507
    18.3101  18.5543  19.0190  19.0700

          k =-0.3042-0.9127-0.0000 (  9198 PWs)   bands (ev):

   -77.0900 -63.2190 -60.5007 -40.4246 -40.4244 -40.4239 -31.9837 -31.9833
   -31.9775 -29.3179 -29.3110 -29.3099   2.4963   2.5225   2.5351   2.5486
     2.5782   9.8215  11.8304  12.9989  13.5582  14.6187  14.6898  15.1266
    15.2208  15.2864  15.8337  16.0361  16.2898  17.4383  17.7149  17.9614
    18.2888  18.3100  18.5552  18.8124

 ------ SPIN DOWN ----------


          k = 0.0000 0.0000 0.0000 (  9257 PWs)   bands (ev):

   -78.4647 -63.7735 -61.1265 -41.7441 -41.7441 -41.7441 -32.5128 -32.5128
   -32.5128 -29.9297 -29.9297 -29.9297   2.5226   2.5226   2.5226   2.5481
     2.5481   6.7045  13.3270  13.3270  13.6852  13.6852  13.6852  14.2988
    14.2988  14.2988  15.9625  15.9625  17.1288  17.1288  17.1288  17.9245
    17.9245  21.5377  22.5134  22.5134

          k =-0.1521 0.1521-0.1521 (  9222 PWs)   bands (ev):

   -78.4647 -63.7734 -61.1267 -41.7442 -41.7442 -41.7442 -32.5131 -32.5131
   -32.5130 -29.9304 -29.9294 -29.9294   2.5210   2.5252   2.5252   2.5521
     2.5521   7.0861  13.1618  13.1618  13.3483  14.0034  14.0034  14.1783
    14.3118  14.3118  15.9425  15.9425  16.6348  16.9896  16.9896  17.8316
    17.8316  20.4022  21.8987  22.1155

          k =-0.3042 0.3042-0.3042 (  9222 PWs)   bands (ev):

   -78.4647 -63.7732 -61.1269 -41.7443 -41.7443 -41.7443 -32.5138 -32.5138
   -32.5134 -29.9318 -29.9288 -29.9288   2.5174   2.5292   2.5292   2.5614
     2.5614   8.1516  12.1049  13.0821  13.0821  14.0408  14.0799  14.0799
    14.7150  14.7150  15.8272  15.8272  16.0918  16.7544  16.7544  17.6433
    17.6433  18.4974  21.7554  21.7554

          k = 0.4563-0.4563 0.4563 (  9204 PWs)   bands (ev):

   -78.4646 -63.7731 -61.1271 -41.7444 -41.7443 -41.7443 -32.5141 -32.5141
   -32.5137 -29.9324 -29.9285 -29.9285   2.5155   2.5308   2.5308   2.5664
     2.5664   9.2256  10.8250  13.0806  13.0806  14.0568  14.0568  14.1138
    15.0176  15.0176  15.6625  15.6625  15.9258  16.7017  16.7017  17.5311
    17.5311  17.6753  21.6518  21.6518

          k =-0.0000 0.3042-0.0000 (  9221 PWs)   bands (ev):

   -78.4647 -63.7734 -61.1267 -41.7443 -41.7443 -41.7441 -32.5135 -32.5135
   -32.5124 -29.9312 -29.9290 -29.9290   2.5158   2.5287   2.5287   2.5496
     2.5550   7.2102  12.6439  13.5152  13.8518  13.8518  13.9485  14.0207
    14.3853  14.3853  15.8232  16.0149  16.7395  16.7395  16.9129  17.6999
    17.8679  20.6425  20.8785  20.8785

          k =-0.1521 0.4563-0.1521 (  9214 PWs)   bands (ev):

   -78.4647 -63.7732 -61.1269 -41.7444 -41.7444 -41.7441 -32.5148 -32.5142
   -32.5120 -29.9325 -29.9285 -29.9284   2.5125   2.5317   2.5335   2.5522
     2.5631   8.0366  12.1740  13.3396  13.4843  13.8971  14.0656  14.2699
    14.4541  14.6995  15.6469  15.9796  16.1968  16.4911  16.7955  17.5277
    17.7262  18.9694  20.0575  20.0626

          k = 0.6084-0.3042 0.6084 (  9174 PWs)   bands (ev):

   -78.4646 -63.7730 -61.1271 -41.7446 -41.7444 -41.7441 -32.5161 -32.5145
   -32.5115 -29.9331 -29.9281 -29.9281   2.5155   2.5296   2.5350   2.5579
     2.5681   9.2108  11.2951  12.8487  13.3214  13.9533  14.0704  14.2088
    14.8478  15.0240  15.6097  15.7075  15.9773  16.5431  16.5450  17.4548
    17.5650  17.7824  19.6096  19.9294

          k = 0.4563-0.1521 0.4563 (  9189 PWs)   bands (ev):

   -78.4646 -63.7731 -61.1271 -41.7446 -41.7443 -41.7441 -32.5161 -32.5141
   -32.5116 -29.9327 -29.9285 -29.9281   2.5191   2.5277   2.5328   2.5606
     2.5640   8.8438  11.6889  13.0272  13.0958  13.9058  14.0714  14.2278
    14.8093  14.9399  15.4287  15.9040  16.0189  16.3961  16.6937  17.5525
    17.6324  18.1215  19.4904  20.5451

          k = 0.3042 0.0000 0.3042 (  9221 PWs)   bands (ev):

   -78.4647 -63.7733 -61.1268 -41.7444 -41.7442 -41.7442 -32.5147 -32.5134
   -32.5123 -29.9315 -29.9292 -29.9286   2.5191   2.5279   2.5285   2.5560
     2.5575   7.6936  12.6248  12.9866  13.6893  13.8452  14.0767  14.1420
    14.4452  14.4785  15.7320  15.9985  16.4015  16.4338  16.9406  17.7266
    17.7411  19.7928  19.7975  21.6903

          k =-0.0000 0.6084-0.0000 (  9164 PWs)   bands (ev):

   -78.4646 -63.7731 -61.1271 -41.7445 -41.7445 -41.7442 -32.5150 -32.5150
   -32.5118 -29.9340 -29.9276 -29.9276   2.5015   2.5402   2.5402   2.5430
     2.5687   8.5576  11.7619  13.3997  14.0299  14.0398  14.1217  14.1217
    14.7872  14.7872  15.4007  16.0138  16.1431  16.1431  16.6106  16.9882
    17.7584  18.8004  18.8004  18.8737

          k = 0.7606-0.1521 0.7606 (  9206 PWs)   bands (ev):

   -78.4646 -63.7730 -61.1272 -41.7447 -41.7445 -41.7441 -32.5164 -32.5154
   -32.5109 -29.9345 -29.9273 -29.9273   2.5023   2.5390   2.5426   2.5429
     2.5726   9.4104  11.6282  12.8852  13.6778  13.9534  14.1842  14.3382
    14.8092  14.8906  15.5588  15.7942  15.9737  16.1428  16.2980  17.0513
    17.6340  17.8607  18.3939  18.5311

          k = 0.6084 0.0000 0.6084 (  9196 PWs)   bands (ev):

   -78.4646 -63.7730 -61.1272 -41.7448 -41.7444 -41.7440 -32.5174 -32.5149
   -32.5105 -29.9339 -29.9278 -29.9276   2.5144   2.5304   2.5395   2.5506
     2.5696   9.6003  11.9276  12.2553  13.4824  13.6471  14.0948  14.4860
    14.8607  14.8730  15.3886  15.8834  15.8928  16.2483  16.4101  17.2568
    17.6509  17.9480  18.3657  18.9947

          k = 0.0000-0.9127 0.0000 (  9176 PWs)   bands (ev):

   -78.4646 -63.7729 -61.1273 -41.7446 -41.7446 -41.7442 -32.5158 -32.5158
   -32.5114 -29.9352 -29.9269 -29.9269   2.4941   2.5350   2.5457   2.5457
     2.5755   9.6257  11.4675  13.0983  13.4720  14.2126  14.2126  14.6297
    14.8434  15.1854  15.1854  15.9292  15.9745  15.9745  16.1290  16.8685
    17.7060  17.7412  17.7412  18.3661

          k = 0.6084-0.3042 0.9127 (  9212 PWs)   bands (ev):

   -78.4646 -63.7730 -61.1271 -41.7447 -41.7444 -41.7441 -32.5164 -32.5148
   -32.5110 -29.9335 -29.9281 -29.9277   2.5120   2.5308   2.5392   2.5507
     2.5680   8.9285  11.8326  13.0143  13.4017  13.8354  14.1917  14.4132
    14.5544  14.9861  15.3244  15.9739  16.0034  16.2045  16.5938  17.4135
    17.6231  18.4488  18.5154  19.2208

          k = 0.4563-0.1521 0.7606 (  9192 PWs)   bands (ev):

   -78.4646 -63.7730 -61.1272 -41.7448 -41.7445 -41.7440 -32.5172 -32.5152
   -32.5104 -29.9339 -29.9280 -29.9274   2.5187   2.5235   2.5417   2.5506
     2.5699   9.6152  11.6931  12.5053  13.4158  13.7485  14.1804  14.3911
    14.6611  15.0753  15.4976  15.8348  15.8808  16.2613  16.2828  17.3408
    17.5552  17.8269  18.4720  18.8202

          k =-0.3042-0.9127-0.0000 (  9198 PWs)   bands (ev):

   -78.4646 -63.7729 -61.1273 -41.7448 -41.7446 -41.7440 -32.5170 -32.5158
   -32.5103 -29.9346 -29.9276 -29.9270   2.5070   2.5331   2.5418   2.5464
     2.5729   9.7451  11.8361  12.6642  13.2866  14.0008  14.2246  14.2862
    14.6692  15.1599  15.6351  15.6395  15.8656  16.0209  16.1752  17.1435
    17.5299  17.8623  17.9889  18.4165

     the Fermi energy is    17.0131 ev

!    total energy              =    -998.88131313 Ry
     Harris-Foulkes estimate   =    -998.88131313 Ry
     estimated scf accuracy    <          9.4E-09 Ry

     The total energy is the sum of the following terms:

     one-electron contribution =    -413.06857436 Ry
     hartree contribution      =     250.48870240 Ry
     xc contribution           =    -124.21806236 Ry
     ewald contribution        =    -600.61656569 Ry
     one-center paw contrib.   =    -111.46685036 Ry
     smearing contrib. (-TS)   =       0.00003725 Ry

     total magnetization       =    -2.02 Bohr mag/cell
     absolute magnetization    =     6.15 Bohr mag/cell

     convergence has been achieved in  28 iterations

     Forces acting on atoms (cartesian axes, Ry/au):

     atom    1 type  2   force =     0.00000000    0.00000000   -0.00000000
     atom    2 type  1   force =     0.00000000    0.00000000    0.00000000
     atom    3 type  3   force =     0.00000000   -0.00000000   -0.00000000
     atom    4 type  1   force =     0.00000000   -0.00000000    0.00000000

     Total force =     0.000000     Total SCF correction =     0.000000


     Computing stress (Cartesian axis) and pressure

          total   stress  (Ry/bohr**3)                   (kbar)     P=  -20.19
  -0.00013723   0.00000000   0.00000000        -20.19      0.00      0.00
   0.00000000  -0.00013723   0.00000000          0.00    -20.19      0.00
   0.00000000   0.00000000  -0.00013723          0.00      0.00    -20.19


     Writing output data file Mn2CoGa.save/

     init_run     :    125.13s CPU    199.57s WALL (       2 calls)
     electrons    :  14644.18s CPU  16878.81s WALL (       6 calls)
     update_pot   :    139.93s CPU    150.07s WALL (       4 calls)
     forces       :    170.04s CPU    193.92s WALL (       6 calls)
     stress       :    342.93s CPU    406.94s WALL (       6 calls)

     Called by init_run:
     wfcinit      :     70.28s CPU     91.82s WALL (       2 calls)
     potinit      :     17.63s CPU     30.00s WALL (       2 calls)
     hinit0       :     30.59s CPU     45.04s WALL (       2 calls)

     Called by electrons:
     c_bands      :  10055.06s CPU  11266.07s WALL (     176 calls)
     sum_band     :   3413.25s CPU   4109.15s WALL (     176 calls)
     v_of_rho     :    269.11s CPU    306.16s WALL (     182 calls)
     newd         :    601.68s CPU    888.17s WALL (     182 calls)
     PAW_pot      :    259.97s CPU    281.13s WALL (     186 calls)
     mix_rho      :     54.84s CPU     65.12s WALL (     176 calls)

     Called by c_bands:
     init_us_2    :     59.33s CPU     67.65s WALL (   11840 calls)
     cegterg      :   9833.12s CPU  11022.30s WALL (    5632 calls)

     Called by sum_band:
     sum_band:bec :      1.16s CPU      1.33s WALL (    5760 calls)
     addusdens    :   1786.39s CPU   2264.92s WALL (     176 calls)

     Called by *egterg:
     h_psi        :   7036.82s CPU   7977.96s WALL (   21277 calls)
     s_psi        :    599.17s CPU    655.32s WALL (   21277 calls)
     g_psi        :     27.95s CPU     30.41s WALL (   15581 calls)
     cdiaghg      :    235.77s CPU    257.03s WALL (   21085 calls)

     Called by h_psi:
     h_psi:pot    :   7010.90s CPU   7949.18s WALL (   21277 calls)
     h_psi:calbec :    626.80s CPU    691.51s WALL (   21277 calls)
     vloc_psi     :   5776.16s CPU   6588.32s WALL (   21277 calls)
     add_vuspsi   :    607.24s CPU    669.08s WALL (   21277 calls)

     General routines
     calbec       :    927.40s CPU   1023.24s WALL (   27997 calls)
     fft          :    238.75s CPU    280.44s WALL (    4782 calls)
     ffts         :      7.74s CPU      9.54s WALL (     716 calls)
     fftw         :   5889.03s CPU   6749.58s WALL ( 1210630 calls)
     interpolate  :     24.70s CPU     28.89s WALL (     364 calls)

     Parallel routines
     fft_scatt_xy :   1179.97s CPU   1318.55s WALL ( 1216128 calls)
     fft_scatt_yz :   1491.75s CPU   1820.30s WALL ( 1216128 calls)

     PWSCF        :      4h17m CPU      4h57m WALL


   This run was terminated on:  20:10:22  22Dec2020            

=------------------------------------------------------------------------------=
   JOB DONE.
=------------------------------------------------------------------------------=
