
     Program PWSCF v.6.4.1 starts on 31Dec2020 at  8:59:47 

     This program is part of the open-source Quantum ESPRESSO suite
     for quantum simulation of materials; please cite
         "P. Giannozzi et al., J. Phys.:Condens. Matter 21 395502 (2009);
         "P. Giannozzi et al., J. Phys.:Condens. Matter 29 465901 (2017);
          URL http://www.quantum-espresso.org", 
     in publications or presentations arising from this work. More details at
     http://www.quantum-espresso.org/quote

     Parallel version (MPI), running on     4 processors

     MPI processes distributed on     1 nodes
     R & G space division:  proc/nbgrp/npool/nimage =       4
     Waiting for input...
     Reading input from standard input
Warning: card  &IONS ignored
Warning: card  / ignored
Warning: card  &CELL ignored
Warning: card  / ignored

     Current dimensions of program PWSCF are:
     Max number of different atomic species (ntypx) = 10
     Max number of k-points (npk) =  40000
     Max angular momentum in pseudopotentials (lmaxx) =  3

     Atomic positions and unit cell read from directory:
     ./Mn2CoGa.save/

               file Ga.pbe-dn-kjpaw_psl.1.0.0.UPF: wavefunction(s)  4S renormalized

     Subspace diagonalization in iterative solution of the eigenvalue problem:
     a serial algorithm will be used


     Parallelization info
     --------------------
     sticks:   dense  smooth     PW     G-vecs:    dense   smooth      PW
     Min        2067     826    231               124085    31361    4624
     Max        2068     828    232               124089    31362    4626
     Sum        8269    3307    925               496345   125445   18499


     Title: 
     Mn2CoGa                                                                    


     bravais-lattice index     =            2
     lattice parameter (alat)  =      10.9569  a.u.
     unit-cell volume          =     328.8522 (a.u.)^3
     number of atoms/cell      =            4
     number of atomic types    =            3
     number of electrons       =        60.00
     number of Kohn-Sham states=           36
     kinetic-energy cutoff     =     200.0000  Ry
     charge density cutoff     =    2000.0000  Ry
     Exchange-correlation      = SLA PW PBX PBC ( 1  4  3  4 0 0)

     celldm(1)=  10.956880  celldm(2)=   0.000000  celldm(3)=   0.000000
     celldm(4)=   0.000000  celldm(5)=   0.000000  celldm(6)=   0.000000

     crystal axes: (cart. coord. in units of alat)
               a(1) = (  -0.500000   0.000000   0.500000 )  
               a(2) = (   0.000000   0.500000   0.500000 )  
               a(3) = (  -0.500000   0.500000   0.000000 )  

     reciprocal axes: (cart. coord. in units 2 pi/alat)
               b(1) = ( -1.000000 -1.000000  1.000000 )  
               b(2) = (  1.000000  1.000000  1.000000 )  
               b(3) = ( -1.000000  1.000000 -1.000000 )  


     PseudoPot. # 1 for Mn read from file:
     /home/ujjawal/QE/QE_Sample_Input_Files/SSSP_efficiency_pseudos/mn_pbe_v1.5.uspp.F.UPF
     MD5 check sum: 82ef2b46521d7a7d9e736dc3972e4928
     Pseudo is Ultrasoft + core correction, Zval = 15.0
     Generated by new atomic code, or converted to UPF format
     Using radial grid of  859 points,  6 beta functions with: 
                l(1) =   0
                l(2) =   0
                l(3) =   1
                l(4) =   1
                l(5) =   2
                l(6) =   2
     Q(r) pseudized with  8 coefficients,  rinner =    0.950   0.950   0.950
                                                       0.950   0.950

     PseudoPot. # 2 for Co read from file:
     /home/ujjawal/QE/QE_Sample_Input_Files/SSSP_efficiency_pseudos/Co_pbe_v1.2.uspp.F.UPF
     MD5 check sum: 5f91765df6ddd3222702df6e7b74a16d
     Pseudo is Ultrasoft + core correction, Zval = 17.0
     Generated by new atomic code, or converted to UPF format
     Using radial grid of  863 points,  6 beta functions with: 
                l(1) =   0
                l(2) =   0
                l(3) =   1
                l(4) =   1
                l(5) =   2
                l(6) =   2
     Q(r) pseudized with  8 coefficients,  rinner =    1.200   1.200   1.200
                                                       1.200   1.200

     PseudoPot. # 3 for Ga read from file:
     /home/ujjawal/QE/QE_Sample_Input_Files/SSSP_efficiency_pseudos/Ga.pbe-dn-kjpaw_psl.1.0.0.UPF
     MD5 check sum: a27b4342b1af7e5f338de752e9ed7044
     Pseudo is Projector augmented-wave + core cor, Zval = 13.0
     Generated using "atomic" code by A. Dal Corso v.5.1
     Shape of augmentation charge: PSQ
     Using radial grid of 1205 points,  6 beta functions with: 
                l(1) =   0
                l(2) =   0
                l(3) =   1
                l(4) =   1
                l(5) =   2
                l(6) =   2
     Q(r) pseudized with 0 coefficients 


     atomic species   valence    mass     pseudopotential
        Mn            15.00    54.93804     Mn( 1.00)
        Co            17.00    58.93319     Co( 1.00)
        Ga            13.00    69.72300     Ga( 1.00)

     Starting magnetic structure 
     atomic species   magnetization
        Mn          -0.167
        Co          -0.083
        Ga           0.005

     24 Sym. Ops. (no inversion) found



   Cartesian axes

     site n.     atom                  positions (alat units)
         1           Co  tau(   1) = (   0.5000000   0.5000000   0.5000000  )
         2           Mn  tau(   2) = (   0.2500000   0.2500000   0.2500000  )
         3           Ga  tau(   3) = (   0.7500000   0.7500000   0.7500000  )
         4           Mn  tau(   4) = (   0.0000000   0.0000000   0.0000000  )

     number of k points=   256 (tetrahedron method)

     Number of k-points >= 100: set verbosity='high' to print them.

     Dense  grid:   496345 G-vectors     FFT dimensions: ( 120, 120, 120)

     Smooth grid:   125445 G-vectors     FFT dimensions: (  72,  72,  72)

     Estimated max dynamical RAM per process >     454.58 MB

     Estimated total dynamical RAM >       1.78 GB
     Generating pointlists ...
     new r_m :   0.1786 (alat units)  1.9571 (a.u.) for type    1
     new r_m :   0.1786 (alat units)  1.9571 (a.u.) for type    2
     new r_m :   0.1786 (alat units)  1.9571 (a.u.) for type    3

     Check: negative core charge=   -0.000003

     The potential is recalculated from file :
     ./Mn2CoGa.save/charge-density

     Starting wfcs are   48 randomized atomic wfcs
     Checking if some PAW data can be deallocated... 

     Band Structure Calculation
     Davidson diagonalization with overlap

     ethr =  1.67E-09,  avg # of iterations = 17.3

     total cpu time spent up to now is    15308.4 secs

     End of band structure calculation

     Number of k-points >= 100: set verbosity='high' to print the bands.

     the Fermi energy is    17.0071 ev

     Writing output data file Mn2CoGa.save/

     init_run     :     18.03s CPU     21.73s WALL (       1 calls)
     electrons    :  13565.74s CPU  15279.50s WALL (       1 calls)

     Called by init_run:
     wfcinit      :      0.00s CPU      0.00s WALL (       1 calls)
     potinit      :      5.27s CPU      5.96s WALL (       1 calls)
     hinit0       :      4.51s CPU      4.81s WALL (       1 calls)

     Called by electrons:
     c_bands      :  13557.67s CPU  15271.10s WALL (       1 calls)
     v_of_rho     :      3.26s CPU      3.53s WALL (       1 calls)
     newd         :      7.21s CPU      9.86s WALL (       1 calls)
     PAW_pot      :      1.43s CPU      1.46s WALL (       1 calls)

     Called by c_bands:
     init_us_2    :      5.57s CPU      5.87s WALL (     512 calls)
     cegterg      :  12554.16s CPU  14235.52s WALL (     569 calls)

     Called by sum_band:

     Called by *egterg:
     h_psi        :   8426.42s CPU  10084.99s WALL (    9947 calls)
     s_psi        :    700.54s CPU    707.45s WALL (    9947 calls)
     g_psi        :     45.94s CPU     46.62s WALL (    8866 calls)
     cdiaghg      :    176.32s CPU    178.28s WALL (    9378 calls)

     Called by h_psi:
     h_psi:pot    :   8389.73s CPU  10047.76s WALL (    9947 calls)
     h_psi:calbec :    680.30s CPU    689.25s WALL (    9947 calls)
     vloc_psi     :   7006.78s CPU   8649.41s WALL (    9947 calls)
     add_vuspsi   :    702.25s CPU    708.98s WALL (    9947 calls)

     General routines
     calbec       :    680.17s CPU    689.18s WALL (    9947 calls)
     fft          :      2.42s CPU      2.68s WALL (      23 calls)
     ffts         :      0.04s CPU      0.05s WALL (       2 calls)
     fftw         :   5738.09s CPU   7317.47s WALL (  546342 calls)
     interpolate  :      0.31s CPU      0.32s WALL (       2 calls)
     davcio       :      1.07s CPU    111.32s WALL (    1024 calls)

     Parallel routines
     fft_scatt_xy :   1321.26s CPU   2715.09s WALL (  546367 calls)
     fft_scatt_yz :    976.76s CPU   1074.04s WALL (  546367 calls)

     PWSCF        :      3h47m CPU      4h18m WALL


   This run was terminated on:  13:18:20  31Dec2020            

=------------------------------------------------------------------------------=
   JOB DONE.
=------------------------------------------------------------------------------=
