
     Program PWSCF v.6.4.1 starts on 30Dec2020 at 14: 7:19 

     This program is part of the open-source Quantum ESPRESSO suite
     for quantum simulation of materials; please cite
         "P. Giannozzi et al., J. Phys.:Condens. Matter 21 395502 (2009);
         "P. Giannozzi et al., J. Phys.:Condens. Matter 29 465901 (2017);
          URL http://www.quantum-espresso.org", 
     in publications or presentations arising from this work. More details at
     http://www.quantum-espresso.org/quote

     Parallel version (MPI), running on     4 processors

     MPI processes distributed on     1 nodes
     R & G space division:  proc/nbgrp/npool/nimage =       4
     Waiting for input...
     Reading input from standard input
Warning: card  &IONS ignored
Warning: card  / ignored
Warning: card  &CELL ignored
Warning: card  / ignored

     Current dimensions of program PWSCF are:
     Max number of different atomic species (ntypx) = 10
     Max number of k-points (npk) =  40000
     Max angular momentum in pseudopotentials (lmaxx) =  3
               file Ga.pbe-dn-kjpaw_psl.1.0.0.UPF: wavefunction(s)  4S renormalized

     Subspace diagonalization in iterative solution of the eigenvalue problem:
     a serial algorithm will be used


     Parallelization info
     --------------------
     sticks:   dense  smooth     PW     G-vecs:    dense   smooth      PW
     Min        2067     826    230               124085    31361    4549
     Max        2068     828    232               124089    31362    4550
     Sum        8269    3307    925               496345   125445   18197


     Title: 
     Mn2CoGa                                                                    


     bravais-lattice index     =            2
     lattice parameter (alat)  =      10.9569  a.u.
     unit-cell volume          =     328.8522 (a.u.)^3
     number of atoms/cell      =            4
     number of atomic types    =            3
     number of electrons       =        60.00
     number of Kohn-Sham states=           36
     kinetic-energy cutoff     =     200.0000  Ry
     charge density cutoff     =    2000.0000  Ry
     convergence threshold     =      1.0E-06
     mixing beta               =       0.7000
     number of iterations used =            8  plain     mixing
     Exchange-correlation      = SLA PW PBX PBC ( 1  4  3  4 0 0)

     celldm(1)=  10.956880  celldm(2)=   0.000000  celldm(3)=   0.000000
     celldm(4)=   0.000000  celldm(5)=   0.000000  celldm(6)=   0.000000

     crystal axes: (cart. coord. in units of alat)
               a(1) = (  -0.500000   0.000000   0.500000 )  
               a(2) = (   0.000000   0.500000   0.500000 )  
               a(3) = (  -0.500000   0.500000   0.000000 )  

     reciprocal axes: (cart. coord. in units 2 pi/alat)
               b(1) = ( -1.000000 -1.000000  1.000000 )  
               b(2) = (  1.000000  1.000000  1.000000 )  
               b(3) = ( -1.000000  1.000000 -1.000000 )  


     PseudoPot. # 1 for Mn read from file:
     /home/ujjawal/QE/QE_Sample_Input_Files/SSSP_efficiency_pseudos/mn_pbe_v1.5.uspp.F.UPF
     MD5 check sum: 82ef2b46521d7a7d9e736dc3972e4928
     Pseudo is Ultrasoft + core correction, Zval = 15.0
     Generated by new atomic code, or converted to UPF format
     Using radial grid of  859 points,  6 beta functions with: 
                l(1) =   0
                l(2) =   0
                l(3) =   1
                l(4) =   1
                l(5) =   2
                l(6) =   2
     Q(r) pseudized with  8 coefficients,  rinner =    0.950   0.950   0.950
                                                       0.950   0.950

     PseudoPot. # 2 for Co read from file:
     /home/ujjawal/QE/QE_Sample_Input_Files/SSSP_efficiency_pseudos/Co_pbe_v1.2.uspp.F.UPF
     MD5 check sum: 5f91765df6ddd3222702df6e7b74a16d
     Pseudo is Ultrasoft + core correction, Zval = 17.0
     Generated by new atomic code, or converted to UPF format
     Using radial grid of  863 points,  6 beta functions with: 
                l(1) =   0
                l(2) =   0
                l(3) =   1
                l(4) =   1
                l(5) =   2
                l(6) =   2
     Q(r) pseudized with  8 coefficients,  rinner =    1.200   1.200   1.200
                                                       1.200   1.200

     PseudoPot. # 3 for Ga read from file:
     /home/ujjawal/QE/QE_Sample_Input_Files/SSSP_efficiency_pseudos/Ga.pbe-dn-kjpaw_psl.1.0.0.UPF
     MD5 check sum: a27b4342b1af7e5f338de752e9ed7044
     Pseudo is Projector augmented-wave + core cor, Zval = 13.0
     Generated using "atomic" code by A. Dal Corso v.5.1
     Shape of augmentation charge: PSQ
     Using radial grid of 1205 points,  6 beta functions with: 
                l(1) =   0
                l(2) =   0
                l(3) =   1
                l(4) =   1
                l(5) =   2
                l(6) =   2
     Q(r) pseudized with 0 coefficients 


     atomic species   valence    mass     pseudopotential
        Mn            15.00    54.93804     Mn( 1.00)
        Co            17.00    58.93319     Co( 1.00)
        Ga            13.00    69.72300     Ga( 1.00)

     Starting magnetic structure 
     atomic species   magnetization
        Mn          -0.167
        Co          -0.083
        Ga           0.005

     24 Sym. Ops. (no inversion) found



   Cartesian axes

     site n.     atom                  positions (alat units)
         1           Co  tau(   1) = (   0.5000000   0.5000000   0.5000000  )
         2           Mn  tau(   2) = (   0.2500000   0.2500000   0.2500000  )
         3           Ga  tau(   3) = (   0.7500000   0.7500000   0.7500000  )
         4           Mn  tau(   4) = (   0.0000000   0.0000000   0.0000000  )

     number of k points=    72  Marzari-Vanderbilt smearing, width (Ry)=  0.0100
                       cart. coord. in units 2pi/alat
        k(    1) = (   0.0000000   0.0000000   0.0000000), wk =   0.0005787
        k(    2) = (  -0.0833333   0.0833333  -0.0833333), wk =   0.0046296
        k(    3) = (  -0.1666667   0.1666667  -0.1666667), wk =   0.0046296
        k(    4) = (  -0.2500000   0.2500000  -0.2500000), wk =   0.0046296
        k(    5) = (  -0.3333333   0.3333333  -0.3333333), wk =   0.0046296
        k(    6) = (  -0.4166667   0.4166667  -0.4166667), wk =   0.0046296
        k(    7) = (   0.5000000  -0.5000000   0.5000000), wk =   0.0023148
        k(    8) = (   0.0000000   0.1666667   0.0000000), wk =   0.0034722
        k(    9) = (  -0.0833333   0.2500000  -0.0833333), wk =   0.0138889
        k(   10) = (  -0.1666667   0.3333333  -0.1666667), wk =   0.0138889
        k(   11) = (  -0.2500000   0.4166667  -0.2500000), wk =   0.0138889
        k(   12) = (  -0.3333333   0.5000000  -0.3333333), wk =   0.0138889
        k(   13) = (   0.5833333  -0.4166667   0.5833333), wk =   0.0138889
        k(   14) = (   0.5000000  -0.3333333   0.5000000), wk =   0.0138889
        k(   15) = (   0.4166667  -0.2500000   0.4166667), wk =   0.0138889
        k(   16) = (   0.3333333  -0.1666667   0.3333333), wk =   0.0138889
        k(   17) = (   0.2500000  -0.0833333   0.2500000), wk =   0.0138889
        k(   18) = (   0.1666667  -0.0000000   0.1666667), wk =   0.0069444
        k(   19) = (   0.0000000   0.3333333   0.0000000), wk =   0.0034722
        k(   20) = (  -0.0833333   0.4166667  -0.0833333), wk =   0.0138889
        k(   21) = (  -0.1666667   0.5000000  -0.1666667), wk =   0.0138889
        k(   22) = (  -0.2500000   0.5833333  -0.2500000), wk =   0.0138889
        k(   23) = (   0.6666667  -0.3333333   0.6666667), wk =   0.0138889
        k(   24) = (   0.5833333  -0.2500000   0.5833333), wk =   0.0138889
        k(   25) = (   0.5000000  -0.1666667   0.5000000), wk =   0.0138889
        k(   26) = (   0.4166667  -0.0833333   0.4166667), wk =   0.0138889
        k(   27) = (   0.3333333   0.0000000   0.3333333), wk =   0.0069444
        k(   28) = (   0.0000000   0.5000000   0.0000000), wk =   0.0034722
        k(   29) = (  -0.0833333   0.5833333  -0.0833333), wk =   0.0138889
        k(   30) = (  -0.1666667   0.6666667  -0.1666667), wk =   0.0138889
        k(   31) = (   0.7500000  -0.2500000   0.7500000), wk =   0.0138889
        k(   32) = (   0.6666667  -0.1666667   0.6666667), wk =   0.0138889
        k(   33) = (   0.5833333  -0.0833333   0.5833333), wk =   0.0138889
        k(   34) = (   0.5000000   0.0000000   0.5000000), wk =   0.0069444
        k(   35) = (   0.0000000   0.6666667   0.0000000), wk =   0.0034722
        k(   36) = (  -0.0833333   0.7500000  -0.0833333), wk =   0.0138889
        k(   37) = (   0.8333333  -0.1666667   0.8333333), wk =   0.0138889
        k(   38) = (   0.7500000  -0.0833333   0.7500000), wk =   0.0138889
        k(   39) = (   0.6666667  -0.0000000   0.6666667), wk =   0.0069444
        k(   40) = (   0.0000000   0.8333333   0.0000000), wk =   0.0034722
        k(   41) = (   0.9166667  -0.0833333   0.9166667), wk =   0.0138889
        k(   42) = (   0.8333333   0.0000000   0.8333333), wk =   0.0069444
        k(   43) = (   0.0000000  -1.0000000   0.0000000), wk =   0.0017361
        k(   44) = (  -0.1666667   0.3333333   0.0000000), wk =   0.0138889
        k(   45) = (  -0.2500000   0.4166667  -0.0833333), wk =   0.0277778
        k(   46) = (  -0.3333333   0.5000000  -0.1666667), wk =   0.0277778
        k(   47) = (   0.5833333  -0.4166667   0.7500000), wk =   0.0277778
        k(   48) = (   0.5000000  -0.3333333   0.6666667), wk =   0.0138889
        k(   49) = (  -0.1666667   0.5000000   0.0000000), wk =   0.0138889
        k(   50) = (  -0.2500000   0.5833333  -0.0833333), wk =   0.0277778
        k(   51) = (   0.6666667  -0.3333333   0.8333333), wk =   0.0277778
        k(   52) = (   0.5833333  -0.2500000   0.7500000), wk =   0.0277778
        k(   53) = (   0.5000000  -0.1666667   0.6666667), wk =   0.0277778
        k(   54) = (   0.4166667  -0.0833333   0.5833333), wk =   0.0277778
        k(   55) = (   0.3333333   0.0000000   0.5000000), wk =   0.0138889
        k(   56) = (  -0.1666667   0.6666667  -0.0000000), wk =   0.0138889
        k(   57) = (   0.7500000  -0.2500000   0.9166667), wk =   0.0277778
        k(   58) = (   0.6666667  -0.1666667   0.8333333), wk =   0.0277778
        k(   59) = (   0.5833333  -0.0833333   0.7500000), wk =   0.0277778
        k(   60) = (   0.5000000   0.0000000   0.6666667), wk =   0.0138889
        k(   61) = (   0.8333333  -0.1666667   1.0000000), wk =   0.0138889
        k(   62) = (   0.7500000  -0.0833333   0.9166667), wk =   0.0277778
        k(   63) = (   0.6666667   0.0000000   0.8333333), wk =   0.0138889
        k(   64) = (  -0.1666667  -1.0000000  -0.0000000), wk =   0.0069444
        k(   65) = (   0.6666667  -0.3333333   1.0000000), wk =   0.0138889
        k(   66) = (   0.5833333  -0.2500000   0.9166667), wk =   0.0277778
        k(   67) = (   0.5000000  -0.1666667   0.8333333), wk =   0.0138889
        k(   68) = (   0.6666667  -0.1666667   1.0000000), wk =   0.0138889
        k(   69) = (   0.5833333  -0.0833333   0.9166667), wk =   0.0277778
        k(   70) = (   0.5000000   0.0000000   0.8333333), wk =   0.0138889
        k(   71) = (  -0.3333333  -1.0000000   0.0000000), wk =   0.0069444
        k(   72) = (  -0.5000000  -1.0000000   0.0000000), wk =   0.0034722

     Dense  grid:   496345 G-vectors     FFT dimensions: ( 120, 120, 120)

     Smooth grid:   125445 G-vectors     FFT dimensions: (  72,  72,  72)

     Estimated max dynamical RAM per process >     861.66 MB

     Estimated total dynamical RAM >       3.37 GB
     Generating pointlists ...
     new r_m :   0.1786 (alat units)  1.9571 (a.u.) for type    1
     new r_m :   0.1786 (alat units)  1.9571 (a.u.) for type    2
     new r_m :   0.1786 (alat units)  1.9571 (a.u.) for type    3

     Check: negative core charge=   -0.000003

     Initial potential from superposition of free atoms

     starting charge   57.99687, renormalised to   60.00000
     Starting wfcs are   48 randomized atomic wfcs
     Checking if some PAW data can be deallocated... 

     total cpu time spent up to now is      313.4 secs

     Self-consistent Calculation

     iteration #  1     ecut=   200.00 Ry     beta= 0.70
     Davidson diagonalization with overlap
     ethr =  1.00E-02,  avg # of iterations =  2.2

     total cpu time spent up to now is     1101.2 secs

     total energy              =    -992.73512135 Ry
     Harris-Foulkes estimate   =   -1000.14822495 Ry
     estimated scf accuracy    <       9.07716209 Ry

     total magnetization       =    -4.10 Bohr mag/cell
     absolute magnetization    =     4.20 Bohr mag/cell

     iteration #  2     ecut=   200.00 Ry     beta= 0.70
     Davidson diagonalization with overlap
     ethr =  1.00E-02,  avg # of iterations =  3.0

     total cpu time spent up to now is     1948.3 secs

     total energy              =    -995.57600896 Ry
     Harris-Foulkes estimate   =   -1010.91008673 Ry
     estimated scf accuracy    <      42.77349844 Ry

     total magnetization       =    -2.49 Bohr mag/cell
     absolute magnetization    =     2.58 Bohr mag/cell

     iteration #  3     ecut=   200.00 Ry     beta= 0.70
     Davidson diagonalization with overlap
     ethr =  1.00E-02,  avg # of iterations =  3.0

     total cpu time spent up to now is     2753.9 secs

     total energy              =    -997.06262730 Ry
     Harris-Foulkes estimate   =   -1002.75067564 Ry
     estimated scf accuracy    <      37.80968987 Ry

     total magnetization       =    -0.56 Bohr mag/cell
     absolute magnetization    =     0.58 Bohr mag/cell

     iteration #  4     ecut=   200.00 Ry     beta= 0.70
     Davidson diagonalization with overlap
     ethr =  1.00E-02,  avg # of iterations =  2.7

     total cpu time spent up to now is     3443.4 secs

     total energy              =    -997.95670050 Ry
     Harris-Foulkes estimate   =    -999.50775339 Ry
     estimated scf accuracy    <      11.30797682 Ry

     total magnetization       =    -2.35 Bohr mag/cell
     absolute magnetization    =     2.50 Bohr mag/cell

     iteration #  5     ecut=   200.00 Ry     beta= 0.70
     Davidson diagonalization with overlap
     ethr =  1.00E-02,  avg # of iterations =  1.9

     total cpu time spent up to now is     4222.3 secs

     total energy              =    -998.36866536 Ry
     Harris-Foulkes estimate   =    -998.95437021 Ry
     estimated scf accuracy    <       3.73478106 Ry

     total magnetization       =    -2.36 Bohr mag/cell
     absolute magnetization    =     2.51 Bohr mag/cell

     iteration #  6     ecut=   200.00 Ry     beta= 0.70
     Davidson diagonalization with overlap
     ethr =  6.22E-03,  avg # of iterations =  1.8

     total cpu time spent up to now is     4945.2 secs

     total energy              =    -997.75407411 Ry
     Harris-Foulkes estimate   =    -999.36475715 Ry
     estimated scf accuracy    <      18.52598884 Ry

     total magnetization       =    -2.27 Bohr mag/cell
     absolute magnetization    =     2.39 Bohr mag/cell

     iteration #  7     ecut=   200.00 Ry     beta= 0.70
     Davidson diagonalization with overlap
     ethr =  6.22E-03,  avg # of iterations =  2.1

     total cpu time spent up to now is     5647.2 secs

     total energy              =    -998.82314091 Ry
     Harris-Foulkes estimate   =    -998.89612812 Ry
     estimated scf accuracy    <       1.46844827 Ry

     total magnetization       =    -2.09 Bohr mag/cell
     absolute magnetization    =     2.34 Bohr mag/cell

     iteration #  8     ecut=   200.00 Ry     beta= 0.70
     Davidson diagonalization with overlap
     ethr =  2.45E-03,  avg # of iterations =  1.0

     total cpu time spent up to now is     6314.7 secs

     total energy              =    -998.87383046 Ry
     Harris-Foulkes estimate   =    -998.84820057 Ry
     estimated scf accuracy    <       0.56319669 Ry

     total magnetization       =    -2.15 Bohr mag/cell
     absolute magnetization    =     2.44 Bohr mag/cell

     iteration #  9     ecut=   200.00 Ry     beta= 0.70
     Davidson diagonalization with overlap
     ethr =  9.39E-04,  avg # of iterations =  1.0

     total cpu time spent up to now is     7023.4 secs

     total energy              =    -998.84565471 Ry
     Harris-Foulkes estimate   =    -998.88476054 Ry
     estimated scf accuracy    <       1.00073758 Ry

     total magnetization       =    -2.06 Bohr mag/cell
     absolute magnetization    =     2.62 Bohr mag/cell

     iteration # 10     ecut=   200.00 Ry     beta= 0.70
     Davidson diagonalization with overlap
     ethr =  9.39E-04,  avg # of iterations =  1.0

     total cpu time spent up to now is     7812.0 secs

     total energy              =    -998.87676190 Ry
     Harris-Foulkes estimate   =    -998.85874408 Ry
     estimated scf accuracy    <       0.37538760 Ry

     total magnetization       =    -2.08 Bohr mag/cell
     absolute magnetization    =     3.20 Bohr mag/cell

     iteration # 11     ecut=   200.00 Ry     beta= 0.70
     Davidson diagonalization with overlap
     ethr =  6.26E-04,  avg # of iterations =  1.0

     total cpu time spent up to now is     8539.5 secs

     total energy              =    -998.81203733 Ry
     Harris-Foulkes estimate   =    -998.88359154 Ry
     estimated scf accuracy    <       0.63708074 Ry

     total magnetization       =    -2.06 Bohr mag/cell
     absolute magnetization    =     3.74 Bohr mag/cell

     iteration # 12     ecut=   200.00 Ry     beta= 0.70
     Davidson diagonalization with overlap
     ethr =  6.26E-04,  avg # of iterations =  1.6

     total cpu time spent up to now is     9270.6 secs

     total energy              =    -998.86775432 Ry
     Harris-Foulkes estimate   =    -998.87430295 Ry
     estimated scf accuracy    <       0.08341404 Ry

     total magnetization       =    -2.01 Bohr mag/cell
     absolute magnetization    =     5.84 Bohr mag/cell

     iteration # 13     ecut=   200.00 Ry     beta= 0.70
     Davidson diagonalization with overlap
     ethr =  1.39E-04,  avg # of iterations =  4.4

     total cpu time spent up to now is    10058.9 secs

     total energy              =    -998.87737369 Ry
     Harris-Foulkes estimate   =    -998.87821994 Ry
     estimated scf accuracy    <       0.01894541 Ry

     total magnetization       =    -2.01 Bohr mag/cell
     absolute magnetization    =     5.49 Bohr mag/cell

     iteration # 14     ecut=   200.00 Ry     beta= 0.70
     Davidson diagonalization with overlap
     ethr =  3.16E-05,  avg # of iterations =  4.3

     total cpu time spent up to now is    10927.5 secs

     total energy              =    -998.88253372 Ry
     Harris-Foulkes estimate   =    -998.88283088 Ry
     estimated scf accuracy    <       0.01522746 Ry

     total magnetization       =    -2.00 Bohr mag/cell
     absolute magnetization    =     5.90 Bohr mag/cell

     iteration # 15     ecut=   200.00 Ry     beta= 0.70
     Davidson diagonalization with overlap
     ethr =  2.54E-05,  avg # of iterations =  1.1

     total cpu time spent up to now is    11633.8 secs

     total energy              =    -998.87692904 Ry
     Harris-Foulkes estimate   =    -998.88274641 Ry
     estimated scf accuracy    <       0.01222976 Ry

     total magnetization       =    -2.00 Bohr mag/cell
     absolute magnetization    =     6.01 Bohr mag/cell

     iteration # 16     ecut=   200.00 Ry     beta= 0.70
     Davidson diagonalization with overlap
     ethr =  2.04E-05,  avg # of iterations =  2.3

     total cpu time spent up to now is    12371.0 secs

     total energy              =    -998.88177160 Ry
     Harris-Foulkes estimate   =    -998.88030579 Ry
     estimated scf accuracy    <       0.00743739 Ry

     total magnetization       =    -1.98 Bohr mag/cell
     absolute magnetization    =     6.51 Bohr mag/cell

     iteration # 17     ecut=   200.00 Ry     beta= 0.70
     Davidson diagonalization with overlap
     ethr =  1.24E-05,  avg # of iterations =  1.1

     total cpu time spent up to now is    13062.3 secs

     total energy              =    -998.88155050 Ry
     Harris-Foulkes estimate   =    -998.88224819 Ry
     estimated scf accuracy    <       0.01333094 Ry

     total magnetization       =    -1.99 Bohr mag/cell
     absolute magnetization    =     6.35 Bohr mag/cell

     iteration # 18     ecut=   200.00 Ry     beta= 0.70
     Davidson diagonalization with overlap
     ethr =  1.24E-05,  avg # of iterations =  1.9

     total cpu time spent up to now is    13828.0 secs

     total energy              =    -998.88276740 Ry
     Harris-Foulkes estimate   =    -998.88238011 Ry
     estimated scf accuracy    <       0.00185708 Ry

     total magnetization       =    -2.00 Bohr mag/cell
     absolute magnetization    =     6.15 Bohr mag/cell

     iteration # 19     ecut=   200.00 Ry     beta= 0.70
     Davidson diagonalization with overlap
     ethr =  3.10E-06,  avg # of iterations =  4.1

     total cpu time spent up to now is    14864.8 secs

     total energy              =    -998.88345840 Ry
     Harris-Foulkes estimate   =    -998.88469136 Ry
     estimated scf accuracy    <       0.02367703 Ry

     total magnetization       =    -2.01 Bohr mag/cell
     absolute magnetization    =     6.12 Bohr mag/cell

     iteration # 20     ecut=   200.00 Ry     beta= 0.70
     Davidson diagonalization with overlap
     ethr =  3.10E-06,  avg # of iterations =  2.0

     total cpu time spent up to now is    15631.0 secs

     total energy              =    -998.88170061 Ry
     Harris-Foulkes estimate   =    -998.88356254 Ry
     estimated scf accuracy    <       0.01269965 Ry

     total magnetization       =    -2.01 Bohr mag/cell
     absolute magnetization    =     6.10 Bohr mag/cell

     iteration # 21     ecut=   200.00 Ry     beta= 0.70
     Davidson diagonalization with overlap
     ethr =  3.10E-06,  avg # of iterations =  4.6

     total cpu time spent up to now is    16566.3 secs

     total energy              =    -998.88350195 Ry
     Harris-Foulkes estimate   =    -998.88352613 Ry
     estimated scf accuracy    <       0.00220313 Ry

     total magnetization       =    -2.01 Bohr mag/cell
     absolute magnetization    =     6.15 Bohr mag/cell

     iteration # 22     ecut=   200.00 Ry     beta= 0.70
     Davidson diagonalization with overlap
     ethr =  3.10E-06,  avg # of iterations =  1.0

     total cpu time spent up to now is    17335.2 secs

     total energy              =    -998.88277578 Ry
     Harris-Foulkes estimate   =    -998.88354048 Ry
     estimated scf accuracy    <       0.00283013 Ry

     total magnetization       =    -2.01 Bohr mag/cell
     absolute magnetization    =     6.14 Bohr mag/cell

     iteration # 23     ecut=   200.00 Ry     beta= 0.70
     Davidson diagonalization with overlap
     ethr =  3.10E-06,  avg # of iterations =  4.1

     total cpu time spent up to now is    18196.4 secs

     total energy              =    -998.88314308 Ry
     Harris-Foulkes estimate   =    -998.88315496 Ry
     estimated scf accuracy    <       0.00017569 Ry

     total magnetization       =    -2.01 Bohr mag/cell
     absolute magnetization    =     6.14 Bohr mag/cell

     iteration # 24     ecut=   200.00 Ry     beta= 0.70
     Davidson diagonalization with overlap
     ethr =  2.93E-07,  avg # of iterations =  1.1

     total cpu time spent up to now is    18911.7 secs

     total energy              =    -998.88311602 Ry
     Harris-Foulkes estimate   =    -998.88314610 Ry
     estimated scf accuracy    <       0.00011332 Ry

     total magnetization       =    -2.01 Bohr mag/cell
     absolute magnetization    =     6.14 Bohr mag/cell

     iteration # 25     ecut=   200.00 Ry     beta= 0.70
     Davidson diagonalization with overlap
     ethr =  1.89E-07,  avg # of iterations =  4.0

     total cpu time spent up to now is    19739.8 secs

     total energy              =    -998.88313191 Ry
     Harris-Foulkes estimate   =    -998.88313299 Ry
     estimated scf accuracy    <       0.00000360 Ry

     total magnetization       =    -2.01 Bohr mag/cell
     absolute magnetization    =     6.14 Bohr mag/cell

     iteration # 26     ecut=   200.00 Ry     beta= 0.70
     Davidson diagonalization with overlap
     ethr =  6.01E-09,  avg # of iterations =  5.0

     total cpu time spent up to now is    20656.4 secs

     total energy              =    -998.88313260 Ry
     Harris-Foulkes estimate   =    -998.88313281 Ry
     estimated scf accuracy    <       0.00000154 Ry

     total magnetization       =    -2.01 Bohr mag/cell
     absolute magnetization    =     6.14 Bohr mag/cell

     iteration # 27     ecut=   200.00 Ry     beta= 0.70
     Davidson diagonalization with overlap
     ethr =  2.56E-09,  avg # of iterations =  1.0

     Magnetic moment per site:
     atom:    1    charge:   15.6794    magn:   -1.0512    constr:    0.0000
     atom:    2    charge:   13.3296    magn:   -2.8349    constr:    0.0000
     atom:    3    charge:   11.2918    magn:    0.0098    constr:    0.0000
     atom:    4    charge:   13.3833    magn:    1.8660    constr:    0.0000

     total cpu time spent up to now is    21406.2 secs

     End of self-consistent calculation

     Number of k-points >= 100: set verbosity='high' to print the bands.

     the Fermi energy is    17.0063 ev

!    total energy              =    -998.88313255 Ry
     Harris-Foulkes estimate   =    -998.88313269 Ry
     estimated scf accuracy    <       0.00000032 Ry

     The total energy is the sum of the following terms:

     one-electron contribution =    -413.06859293 Ry
     hartree contribution      =     250.48561613 Ry
     xc contribution           =    -124.21680704 Ry
     ewald contribution        =    -600.61656621 Ry
     one-center paw contrib.   =    -111.46696812 Ry
     smearing contrib. (-TS)   =       0.00018562 Ry

     total magnetization       =    -2.01 Bohr mag/cell
     absolute magnetization    =     6.14 Bohr mag/cell

     convergence has been achieved in  27 iterations

     Forces acting on atoms (cartesian axes, Ry/au):

     atom    1 type  2   force =    -0.00000000    0.00000000   -0.00000000
     atom    2 type  1   force =     0.00000000    0.00000000    0.00000000
     atom    3 type  3   force =     0.00000000    0.00000000    0.00000000
     atom    4 type  1   force =     0.00000000    0.00000000    0.00000000

     Total force =     0.000000     Total SCF correction =     0.000000


     Computing stress (Cartesian axis) and pressure

          total   stress  (Ry/bohr**3)                   (kbar)     P=  -20.71
  -0.00014076  -0.00000000   0.00000000        -20.71     -0.00      0.00
  -0.00000000  -0.00014076   0.00000000         -0.00    -20.71      0.00
  -0.00000000   0.00000000  -0.00014076         -0.00      0.00    -20.71


     Writing output data file Mn2CoGa.save/

     init_run     :    295.05s CPU    308.62s WALL (       1 calls)
     electrons    :  17299.14s CPU  21098.08s WALL (       1 calls)
     forces       :     80.81s CPU    193.37s WALL (       1 calls)
     stress       :    136.84s CPU    239.11s WALL (       1 calls)

     Called by init_run:
     wfcinit      :    277.28s CPU    287.36s WALL (       1 calls)
     potinit      :      5.27s CPU      5.73s WALL (       1 calls)
     hinit0       :      4.27s CPU      4.77s WALL (       1 calls)

     Called by electrons:
     c_bands      :  13993.36s CPU  15688.59s WALL (      27 calls)
     sum_band     :   2961.18s CPU   4511.83s WALL (      27 calls)
     v_of_rho     :     94.19s CPU    128.18s WALL (      28 calls)
     newd         :    178.51s CPU    477.05s WALL (      28 calls)
     PAW_pot      :     46.79s CPU     54.86s WALL (      28 calls)
     mix_rho      :     23.12s CPU    157.10s WALL (      27 calls)

     Called by c_bands:
     init_us_2    :     86.17s CPU    158.28s WALL (    8208 calls)
     cegterg      :  13607.62s CPU  14318.09s WALL (    3888 calls)

     Called by sum_band:
     sum_band:bec :      0.80s CPU      0.81s WALL (    3888 calls)
     addusdens    :    352.08s CPU   1664.64s WALL (      27 calls)

     Called by *egterg:
     h_psi        :  10380.64s CPU  10954.15s WALL (   13314 calls)
     s_psi        :    836.98s CPU    861.89s WALL (   13314 calls)
     g_psi        :     35.56s CPU     36.39s WALL (    9282 calls)
     cdiaghg      :    142.98s CPU    176.24s WALL (   13170 calls)

     Called by h_psi:
     h_psi:pot    :  10340.24s CPU  10912.23s WALL (   13314 calls)
     h_psi:calbec :    837.07s CPU    870.38s WALL (   13314 calls)
     vloc_psi     :   8664.29s CPU   9177.70s WALL (   13314 calls)
     add_vuspsi   :    838.30s CPU    863.96s WALL (   13314 calls)

     General routines
     calbec       :   1276.03s CPU   1333.75s WALL (   17922 calls)
     fft          :     83.64s CPU    102.18s WALL (     738 calls)
     ffts         :      3.14s CPU      4.00s WALL (     110 calls)
     fftw         :   8820.12s CPU   9340.84s WALL (  787026 calls)
     interpolate  :      9.36s CPU     10.93s WALL (      56 calls)

     Parallel routines
     fft_scatt_xy :   1850.47s CPU   1910.19s WALL (  787874 calls)
     fft_scatt_yz :   1848.53s CPU   2091.76s WALL (  787874 calls)

     PWSCF        :      4h57m CPU      6h 5m WALL


   This run was terminated on:  20:12:36  30Dec2020            

=------------------------------------------------------------------------------=
   JOB DONE.
=------------------------------------------------------------------------------=
